LAMMPS data file
# Generated via moleculegraph
# Use if there are more then one bond style or dihedral style

6 atom types
10 bond types
3 angle types
2 dihedral types

18 atoms
30 bonds
10 angles
6 dihedrals

-15.692015064588528 15.692015064588528 xlo xhi
-15.692015064588528 15.692015064588528 ylo yhi
-15.692015064588528 15.692015064588528 zlo zhi

Masses

1 1.0 # H
2 15.999 # OH_alcohol
3 14.027 # CH2_alcohol
4 1.0 # H
5 15.999 # OH_alcohol
6 14.027 # CH2_alcohol

# Elements

Bond Coeffs

1 harmonic 1000.0 0.97 # OH_alcohol cH_alcohol
2 harmonic 1000.0 1.42 # CH2_alcohol OH_alcohol
3 table  [special][CH2_alcohol][cH_alcohol] # cH_alcohol CH2_alcohol
4 table  [special][OH_alcohol][cH_alcohol] # cH_alcohol OH_alcohol
5 table  [special][cH_alcohol][cH_alcohol] # cH_alcohol cH_alcohol
6 table  [special][CH2_alcohol][OH_alcohol] # OH_alcohol CH2_alcohol
7 table  [special][OH_alcohol][OH_alcohol] # OH_alcohol OH_alcohol
8 table  [special][CH2_alcohol][CH2_alcohol] # CH2_alcohol CH2_alcohol
9 harmonic 1000.0 0.97 # OH_alcohol cH_alcohol
10 harmonic 1000.0 1.42 # CH2_alcohol OH_alcohol

Angle Coeffs

1 45.6354 107.4 # CH2_alcohol OH_alcohol cH_alcohol
2 61.8104 113.5 # CH2_alcohol CH2_alcohol OH_alcohol
3 45.6354 107.4 # CH2_alcohol OH_alcohol cH_alcohol

Dihedral Coeffs

1 opls 0.3257 0.1465 1.2068 0.0 # CH2_alcohol CH2_alcohol OH_alcohol cH_alcohol
2 nharmonic 8 3.3966 -7.8358 1.8155 6.6448 -7.0705 -0.0781 5.4748 0.2415 # OH_alcohol CH2_alcohol CH2_alcohol OH_alcohol

Atoms

1 1 1 0.404 -10.69874 -8.710742 1.59434903 # cH_alcohol1
2 1 2 -0.65 -10.6926241 -8.71013165 2.56670189 # OH_alcohol2
3 1 3 0.246 -12.0072327 -9.03287697 3.00366092 # CH2_alcohol3
4 1 3 0.246 -12.9707451 -7.97788715 2.49483395 # CH2_alcohol4
5 1 2 -0.65 -12.5984783 -6.7131772 3.02881098 # OH_alcohol5
6 1 1 0.404 -11.6848097 -6.53498888 2.7471869 # cH_alcohol6
7 2 1 0.404 -11.7094431 -3.16966891 1.85871303 # cH_alcohol1
8 2 2 -0.65 -10.8777113 -2.92648792 2.29983902 # OH_alcohol2
9 2 3 0.246 -9.81413269 -3.22590995 1.40404606 # CH2_alcohol3
10 2 3 0.246 -9.82229805 -4.7129159 1.105703 # CH2_alcohol4
11 2 2 -0.65 -9.62762833 -5.43060589 2.31823397 # OH_alcohol5
12 2 1 0.404 -10.3451719 -5.17910385 2.92464209 # cH_alcohol6
13 3 4 0.404 -10.413434 12.5417614 12.4812393 # cH_alcohol7
14 3 5 -0.65 -10.4054527 13.0979662 13.2787848 # OH_alcohol8
15 3 6 0.246 -11.7424526 13.1800671 13.7573118 # CH2_alcohol9
16 4 4 0.404 -13.1283684 7.84220982 11.5185127 # cH_alcohol7
17 4 5 -0.65 -13.7765856 7.14257383 11.3292246 # OH_alcohol8
18 4 6 0.246 -13.7696199 6.92073584 9.92422104 # CH2_alcohol9


Bonds

1 1 1 2 # cH_alcohol OH_alcohol 
2 2 2 3 # OH_alcohol CH2_alcohol 
3 2 4 5 # CH2_alcohol OH_alcohol 
4 1 5 6 # OH_alcohol cH_alcohol 
5 3 1 4 # cH_alcohol CH2_alcohol 
6 4 1 5 # cH_alcohol OH_alcohol 
7 5 1 6 # cH_alcohol cH_alcohol 
8 6 2 4 # OH_alcohol CH2_alcohol 
9 7 2 5 # OH_alcohol OH_alcohol 
10 4 2 6 # OH_alcohol cH_alcohol 
11 8 3 4 # CH2_alcohol CH2_alcohol 
12 6 3 5 # CH2_alcohol OH_alcohol 
13 3 3 6 # CH2_alcohol cH_alcohol 
14 1 7 8 # cH_alcohol OH_alcohol 
15 2 8 9 # OH_alcohol CH2_alcohol 
16 2 10 11 # CH2_alcohol OH_alcohol 
17 1 11 12 # OH_alcohol cH_alcohol 
18 3 7 10 # cH_alcohol CH2_alcohol 
19 4 7 11 # cH_alcohol OH_alcohol 
20 5 7 12 # cH_alcohol cH_alcohol 
21 6 8 10 # OH_alcohol CH2_alcohol 
22 7 8 11 # OH_alcohol OH_alcohol 
23 4 8 12 # OH_alcohol cH_alcohol 
24 8 9 10 # CH2_alcohol CH2_alcohol 
25 6 9 11 # CH2_alcohol OH_alcohol 
26 3 9 12 # CH2_alcohol cH_alcohol 
27 9 13 14 # cH_alcohol OH_alcohol 
28 10 14 15 # OH_alcohol CH2_alcohol 
29 9 16 17 # cH_alcohol OH_alcohol 
30 10 17 18 # OH_alcohol CH2_alcohol 



Angles

1 1 1 2 3 # cH_alcohol OH_alcohol CH2_alcohol  
2 2 2 3 4 # OH_alcohol CH2_alcohol CH2_alcohol  
3 2 3 4 5 # CH2_alcohol CH2_alcohol OH_alcohol  
4 1 4 5 6 # CH2_alcohol OH_alcohol cH_alcohol  
5 1 7 8 9 # cH_alcohol OH_alcohol CH2_alcohol  
6 2 8 9 10 # OH_alcohol CH2_alcohol CH2_alcohol  
7 2 9 10 11 # CH2_alcohol CH2_alcohol OH_alcohol  
8 1 10 11 12 # CH2_alcohol OH_alcohol cH_alcohol  
9 3 13 14 15 # cH_alcohol OH_alcohol CH2_alcohol  
10 3 16 17 18 # cH_alcohol OH_alcohol CH2_alcohol  



Dihedrals

1 1 4 3 2 1 # CH2_alcohol CH2_alcohol OH_alcohol cH_alcohol   
2 2 5 4 3 2 # OH_alcohol CH2_alcohol CH2_alcohol OH_alcohol   
3 1 6 5 4 3 # cH_alcohol OH_alcohol CH2_alcohol CH2_alcohol   
4 1 10 9 8 7 # CH2_alcohol CH2_alcohol OH_alcohol cH_alcohol   
5 2 11 10 9 8 # OH_alcohol CH2_alcohol CH2_alcohol OH_alcohol   
6 1 12 11 10 9 # cH_alcohol OH_alcohol CH2_alcohol CH2_alcohol   
