LAMMPS data file
# Generated via moleculegraph
# Use if there are more then one bond style or dihedral style

3 atom types
8 bond types
2 angle types
2 dihedral types

3000 atoms
6500 bonds
2000 angles
1500 dihedrals

-17.890182930113593 17.890182930113593 xlo xhi
-17.890182930113593 17.890182930113593 ylo yhi
-17.890182930113593 17.890182930113593 zlo zhi

Masses

1 1.008 # H
2 15.999 # OH_alcohol
3 14.027 # CH2_alcohol

# Elements

Bond Coeffs

1 harmonic 200.0 0.97 # OH_alcohol cH_alcohol
2 harmonic 200.0 1.42 # CH2_alcohol OH_alcohol
3 table ../bonded_interactions.table [special][CH2_alcohol][cH_alcohol] # cH_alcohol CH2_alcohol
4 table ../bonded_interactions.table [special][OH_alcohol][cH_alcohol] # cH_alcohol OH_alcohol
5 table ../bonded_interactions.table [special][cH_alcohol][cH_alcohol] # cH_alcohol cH_alcohol
6 table ../bonded_interactions.table [special][CH2_alcohol][OH_alcohol] # OH_alcohol CH2_alcohol
7 table ../bonded_interactions.table [special][OH_alcohol][OH_alcohol] # OH_alcohol OH_alcohol
8 table ../bonded_interactions.table [special][CH2_alcohol][CH2_alcohol] # CH2_alcohol CH2_alcohol

Angle Coeffs

1 45.6354 107.4 # CH2_alcohol OH_alcohol cH_alcohol
2 61.8104 113.5 # CH2_alcohol CH2_alcohol OH_alcohol

Dihedral Coeffs

1 opls 0.3257 0.1465 1.2068 0.0 # CH2_alcohol CH2_alcohol OH_alcohol cH_alcohol
2 nharmonic 8 3.3966 -7.8358 1.8155 6.6448 -7.0705 -0.0781 5.4748 0.2415 # OH_alcohol CH2_alcohol CH2_alcohol OH_alcohol

Atoms

1 1 1 0.404 7.62741899 8.89270306 4.78720093 # cH_alcohol1
2 1 2 -0.65 7.34496403 9.8079977 4.61998701 # OH_alcohol2
3 1 3 0.246 6.05394602 9.75611877 4.02511215 # CH2_alcohol3
4 1 3 0.246 6.143116 8.9979372 2.71458912 # CH2_alcohol4
5 1 2 -0.65 7.03241587 9.68344593 1.841416 # OH_alcohol5
6 1 1 0.404 7.89494085 9.73813915 2.28741288 # cH_alcohol6
7 2 1 0.404 -14.4159803 2.3556819 -13.6991301 # cH_alcohol1
8 2 2 -0.65 -14.2440643 2.32511997 -12.7425642 # OH_alcohol2
9 2 3 0.246 -15.4895306 2.49826193 -12.0776358 # CH2_alcohol3
10 2 3 0.246 -16.0673943 3.84925795 -12.45333 # CH2_alcohol4
11 2 2 -0.65 -15.1693764 4.87038898 -12.0361223 # OH_alcohol5
12 2 1 0.404 -14.3170128 4.706563 -12.4748611 # cH_alcohol6
13 3 1 0.404 -4.06127119 -14.3959913 4.22113895 # cH_alcohol1
14 3 2 -0.65 -4.19991493 -14.4597397 3.26081491 # OH_alcohol2
15 3 3 0.246 -3.88268995 -15.7899694 2.86946607 # CH2_alcohol3
16 3 3 0.246 -2.42878389 -16.0692196 3.19876599 # CH2_alcohol4
17 3 2 -0.65 -1.60652804 -15.1611366 2.47593307 # OH_alcohol5
18 3 1 0.404 -1.86956596 -14.2609196 2.73336911 # cH_alcohol6
19 4 1 0.404 11.9863653 4.65648413 -9.2491684 # cH_alcohol1
20 4 2 -0.65 11.7222404 4.43891478 -10.159338 # OH_alcohol2
21 4 3 0.246 10.4448195 5.02217579 -10.3858252 # CH2_alcohol3
22 4 3 0.246 9.44982433 4.430089 -9.40619183 # CH2_alcohol4
23 4 2 -0.65 9.36684895 3.02636194 -9.62037086 # OH_alcohol5
24 4 1 0.404 10.2588606 2.65906906 -9.49682236 # cH_alcohol6
25 5 1 0.404 -9.80115032 -5.19178915 7.03370094 # cH_alcohol1
26 5 2 -0.65 -10.1289539 -4.72062778 6.248806 # OH_alcohol2
27 5 3 0.246 -9.41523361 -5.21601391 5.12253189 # CH2_alcohol3
28 5 3 0.246 -7.9368 -4.93489981 5.31086588 # CH2_alcohol4
29 5 2 -0.65 -7.74019623 -3.52944493 5.40703678 # OH_alcohol5
30 5 1 0.404 -8.26784801 -3.21178603 6.15971899 # cH_alcohol6
31 6 1 0.404 -14.1249657 -0.344449997 -3.96481395 # cH_alcohol1
32 6 2 -0.65 -15.0226288 -0.65210098 -4.17708778 # OH_alcohol2
33 6 3 0.246 -15.9370251 0.31389001 -3.67306805 # CH2_alcohol3
34 6 3 0.246 -15.7704659 0.415372998 -2.16899896 # CH2_alcohol4
35 6 2 -0.65 -16.0572834 -0.84900701 -1.58394897 # OH_alcohol5
36 6 1 0.404 -15.4446707 -1.49637103 -1.97315001 # cH_alcohol6
37 7 1 0.404 9.31190109 -16.0149975 4.3845458 # cH_alcohol1
38 7 2 -0.65 8.92263508 -15.4743576 3.67624593 # OH_alcohol2
39 7 3 0.246 9.28717422 -16.0667686 2.43549705 # CH2_alcohol3
40 7 3 0.246 10.7987757 -16.0654125 2.31171894 # CH2_alcohol4
41 7 2 -0.65 11.2657738 -14.7222271 2.34295893 # OH_alcohol5
42 7 1 0.404 10.9709692 -14.3302183 3.1827631 # cH_alcohol6
43 8 1 0.404 2.55891991 0.595309019 -11.9388723 # cH_alcohol1
44 8 2 -0.65 3.29633594 1.03733206 -12.3931189 # OH_alcohol2
45 8 3 0.246 3.03230691 2.43496704 -12.3789282 # CH2_alcohol3
46 8 3 0.246 1.73705196 2.70139194 -13.121623 # CH2_alcohol4
47 8 2 -0.65 1.87645102 2.26614404 -14.4685946 # OH_alcohol5
48 8 1 0.404 2.09360504 1.31836998 -14.4480419 # cH_alcohol6
49 9 1 0.404 -9.55877209 5.16216183 16.0656281 # cH_alcohol1
50 9 2 -0.65 -10.5137224 4.98796177 16.0087757 # OH_alcohol2
51 9 3 0.246 -10.69631 3.57846594 16.0660439 # CH2_alcohol3
52 9 3 0.246 -9.98599243 2.93926191 14.888279 # CH2_alcohol4
53 9 2 -0.65 -10.5513802 3.43470192 13.680768 # OH_alcohol5
54 9 1 0.404 -10.4472284 4.40164995 13.6849699 # cH_alcohol6
55 10 1 0.404 -5.48749685 -9.59461784 -3.22182107 # cH_alcohol1
56 10 2 -0.65 -6.1330018 -10.0210953 -3.81084394 # OH_alcohol2
57 10 3 0.246 -5.61061192 -11.2948961 -4.16838503 # CH2_alcohol3
58 10 3 0.246 -4.29570913 -11.1029778 -4.89945221 # CH2_alcohol4
59 10 2 -0.65 -4.5277071 -10.3451328 -6.0805769 # OH_alcohol5
60 10 1 0.404 -4.91908407 -9.49667931 -5.81075621 # cH_alcohol6
61 11 1 0.404 13.7702971 4.39858007 -13.5174789 # cH_alcohol1
62 11 2 -0.65 13.5812807 4.22284079 -12.5799837 # OH_alcohol2
63 11 3 0.246 14.4858866 5.002316 -11.8070641 # CH2_alcohol3
64 11 3 0.246 15.9058132 4.58072805 -12.1331577 # CH2_alcohol4
65 11 2 -0.65 16.0702839 3.20764089 -11.8003063 # OH_alcohol5
66 11 1 0.404 15.4159679 2.70269394 -12.3129005 # cH_alcohol6
67 12 1 0.404 -5.93260622 6.13299322 12.7796154 # cH_alcohol1
68 12 2 -0.65 -6.25166082 5.26990509 12.4653072 # OH_alcohol2
69 12 3 0.246 -7.2644372 4.83425903 13.3640804 # CH2_alcohol3
70 12 3 0.246 -6.66633797 4.68774223 14.7501068 # CH2_alcohol4
71 12 2 -0.65 -5.6295948 3.71482205 14.7077179 # OH_alcohol5
72 12 1 0.404 -4.9710722 4.01812792 14.0594854 # cH_alcohol6
73 13 1 0.404 -8.31511021 15.556016 15.0711346 # cH_alcohol1
74 13 2 -0.65 -9.04028225 16.0661106 14.6718388 # OH_alcohol2
75 13 3 0.246 -10.1226234 16.0666733 15.5947866 # CH2_alcohol3
76 13 3 0.246 -10.5700235 14.637311 15.8335629 # CH2_alcohol4
77 13 2 -0.65 -11.0069323 14.0758724 14.6018543 # OH_alcohol5
78 13 1 0.404 -10.2613916 14.1225977 13.9790859 # cH_alcohol6
79 14 1 0.404 6.3870039 3.32557988 11.1090393 # cH_alcohol1
80 14 2 -0.65 6.60108614 2.91529393 11.9642248 # OH_alcohol2
81 14 3 0.246 7.6456809 3.67818809 12.5559273 # CH2_alcohol3
82 14 3 0.246 8.86071491 3.64047694 11.6489906 # CH2_alcohol4
83 14 2 -0.65 9.29085922 2.29232502 11.5052204 # OH_alcohol5
84 14 1 0.404 8.54710674 1.78657401 11.1352196 # cH_alcohol6
85 15 1 0.404 -13.6232471 -6.75337076 -13.4773598 # cH_alcohol1
86 15 2 -0.65 -13.4338551 -7.63342905 -13.8449678 # OH_alcohol2
87 15 3 0.246 -13.6134291 -8.58189201 -12.8002348 # CH2_alcohol3
88 15 3 0.246 -12.6403532 -8.27280521 -11.6786957 # CH2_alcohol4
89 15 2 -0.65 -11.311635 -8.37236691 -12.1764927 # OH_alcohol5
90 15 1 0.404 -11.227746 -7.74219418 -12.9124937 # cH_alcohol6
91 16 1 0.404 -7.12528896 -1.44779205 -16.0490952 # cH_alcohol1
92 16 2 -0.65 -6.81508493 -1.74099505 -15.1754169 # OH_alcohol2
93 16 3 0.246 -5.61456108 -1.03442705 -14.8876657 # CH2_alcohol3
94 16 3 0.246 -4.57723618 -1.37168097 -15.9414577 # CH2_alcohol4
95 16 2 -0.65 -4.31648684 -2.76950598 -15.9053669 # OH_alcohol5
96 16 1 0.404 -5.15893316 -3.22779107 -16.0669613 # cH_alcohol6
97 17 1 0.404 13.4003448 -9.85650158 -11.359622 # cH_alcohol1
98 17 2 -0.65 13.0887527 -9.61967945 -12.249753 # OH_alcohol2
99 17 3 0.246 13.5062695 -8.28481674 -12.5088263 # CH2_alcohol3
100 17 3 0.246 12.8786449 -7.36193991 -11.4818649 # CH2_alcohol4
101 17 2 -0.65 11.4626741 -7.43827915 -11.5932388 # OH_alcohol5
102 17 1 0.404 11.2082396 -8.36592293 -11.4497404 # cH_alcohol6
103 18 1 0.404 14.9866323 -0.0839319974 4.45419598 # cH_alcohol1
104 18 2 -0.65 15.9361801 -0.00755700003 4.64921618 # OH_alcohol2
105 18 3 0.246 16.0625572 0.475138009 5.98125601 # CH2_alcohol3
106 18 3 0.246 15.4064846 1.83915806 6.07758808 # CH2_alcohol4
107 18 2 -0.65 16.0663891 2.73515797 5.19163084 # OH_alcohol5
108 18 1 0.404 15.9979391 2.36298704 4.2957201 # cH_alcohol6
109 19 1 0.404 -7.99231815 -3.40841699 3.28157592 # cH_alcohol1
110 19 2 -0.65 -8.72533798 -3.12221003 2.71037197 # OH_alcohol2
111 19 3 0.246 -8.47236156 -1.77471101 2.33149791 # CH2_alcohol3
112 19 3 0.246 -8.42393684 -0.911188006 3.57738996 # CH2_alcohol4
113 19 2 -0.65 -9.68048954 -0.981872976 4.24017477 # OH_alcohol5
114 19 1 0.404 -9.84575081 -1.91623294 4.45351601 # cH_alcohol6
115 20 1 0.404 7.07153797 8.85739517 -0.864435971 # cH_alcohol1
116 20 2 -0.65 7.5580368 9.12525463 -1.66260695 # OH_alcohol2
117 20 3 0.246 6.59870386 9.50273895 -2.64264989 # CH2_alcohol3
118 20 3 0.246 5.71497488 8.31037903 -2.95500112 # CH2_alcohol4
119 20 2 -0.65 6.52077293 7.25809002 -3.47131801 # OH_alcohol5
120 20 1 0.404 7.190238 7.04611683 -2.79846096 # cH_alcohol6
121 21 1 0.404 -14.8966999 -12.6789417 -16.0433826 # cH_alcohol1
122 21 2 -0.65 -14.9472103 -12.3221502 -15.1402454 # OH_alcohol2
123 21 3 0.246 -16.0656109 -11.4447937 -15.0880747 # CH2_alcohol3
124 21 3 0.246 -15.854044 -10.3141289 -16.0765572 # CH2_alcohol4
125 21 2 -0.65 -14.6801548 -9.5962429 -15.7162361 # OH_alcohol5
126 21 1 0.404 -13.9392567 -10.2262268 -15.7228193 # cH_alcohol6
127 22 1 0.404 -16.0679836 -12.1925669 10.0116367 # cH_alcohol1
128 22 2 -0.65 -15.5287838 -12.9492159 10.2984352 # OH_alcohol2
129 22 3 0.246 -16.0714474 -13.4214449 11.5255499 # CH2_alcohol3
130 22 3 0.246 -15.9947109 -12.3141708 12.559145 # CH2_alcohol4
131 22 2 -0.65 -14.6319666 -11.9581013 12.757513 # OH_alcohol5
132 22 1 0.404 -14.2759123 -11.6759319 11.8975954 # cH_alcohol6
133 23 1 0.404 2.02999091 13.8219986 -14.6200838 # cH_alcohol1
134 23 2 -0.65 2.04029703 13.7936563 -15.5919886 # OH_alcohol2
135 23 3 0.246 1.27289498 14.8956842 -16.0609493 # CH2_alcohol3
136 23 3 0.246 -0.151045993 14.7569885 -15.5575399 # CH2_alcohol4
137 23 2 -0.65 -0.707472026 13.5505676 -16.0656185 # OH_alcohol5
138 23 1 0.404 -0.143400997 12.8186293 -15.7623997 # cH_alcohol6
139 24 1 0.404 1.10824203 7.83204222 11.1095657 # cH_alcohol1
140 24 2 -0.65 0.219567999 8.06371689 10.7900457 # OH_alcohol2
141 24 3 0.246 0.0217809994 9.44975853 11.0411711 # CH2_alcohol3
142 24 3 0.246 0.112830997 9.70001602 12.5342703 # CH2_alcohol4
143 24 2 -0.65 -0.905403972 8.95623302 13.1924429 # OH_alcohol5
144 24 1 0.404 -0.769481003 8.01841927 12.9736176 # cH_alcohol6
145 25 1 0.404 -2.23831511 16.0656281 -5.14787912 # cH_alcohol1
146 25 2 -0.65 -3.09355593 15.736042 -4.82315779 # OH_alcohol2
147 25 3 0.246 -3.23886299 14.397357 -5.281528 # CH2_alcohol3
148 25 3 0.246 -3.22706604 14.3896151 -6.79812384 # CH2_alcohol4
149 25 2 -0.65 -4.31842709 15.1674433 -7.27469587 # OH_alcohol5
150 25 1 0.404 -4.21503401 16.0656776 -6.91645288 # cH_alcohol6
151 26 1 0.404 13.7730436 4.91178179 -14.9709244 # cH_alcohol1
152 26 2 -0.65 14.71731 4.78997993 -15.1684895 # OH_alcohol2
153 26 3 0.246 14.8270912 3.70853305 -16.0859394 # CH2_alcohol3
154 26 3 0.246 14.2707338 2.45381188 -15.4406471 # CH2_alcohol4
155 26 2 -0.65 15.0293236 2.15602493 -14.2748547 # OH_alcohol5
156 26 1 0.404 14.9684553 2.92512989 -13.6827183 # cH_alcohol6
157 27 1 0.404 -2.62850499 -9.86811638 -10.0037746 # cH_alcohol1
158 27 2 -0.65 -3.43826103 -10.3903074 -9.87293243 # OH_alcohol2
159 27 3 0.246 -4.40773296 -9.9171257 -10.8000355 # CH2_alcohol3
160 27 3 0.246 -4.68859386 -8.45353031 -10.5184908 # CH2_alcohol4
161 27 2 -0.65 -5.20302296 -8.32522774 -9.19860172 # OH_alcohol5
162 27 1 0.404 -4.53827095 -8.68995571 -8.58956146 # cH_alcohol6
163 28 1 0.404 -13.917882 13.1765356 -7.31337118 # cH_alcohol1
164 28 2 -0.65 -14.6073027 12.7526932 -7.85241079 # OH_alcohol2
165 28 3 0.246 -15.8623953 13.268177 -7.42542791 # CH2_alcohol3
166 28 3 0.246 -16.0677795 12.9221935 -5.96310902 # CH2_alcohol4
167 28 2 -0.65 -16.0698757 11.5073433 -5.81681681 # OH_alcohol5
168 28 1 0.404 -15.2177076 11.1781921 -6.15046883 # cH_alcohol6
169 29 1 0.404 1.71547604 15.0722046 2.80500197 # cH_alcohol1
170 29 2 -0.65 1.72358501 16.0102711 2.54912305 # OH_alcohol2
171 29 3 0.246 1.73182595 16.0666599 1.12783897 # CH2_alcohol3
172 29 3 0.246 2.98347306 15.3823156 0.612751007 # CH2_alcohol4
173 29 2 -0.65 4.12578011 16.0658722 1.11384499 # OH_alcohol5
174 29 1 0.404 4.07549906 16.0453339 2.08487701 # cH_alcohol6
175 30 1 0.404 -12.9602509 -1.30919099 2.73237896 # cH_alcohol1
176 30 2 -0.65 -12.3103065 -1.40951097 2.01612711 # OH_alcohol2
177 30 3 0.246 -11.6980839 -0.141841993 1.81242502 # CH2_alcohol3
178 30 3 0.246 -12.7606001 0.861175001 1.40587997 # CH2_alcohol4
179 30 2 -0.65 -13.3625793 0.432617992 0.190493003 # OH_alcohol5
180 30 1 0.404 -13.7391586 -0.450334996 0.346810013 # cH_alcohol6
181 31 1 0.404 16.0590744 -13.6670599 15.4298382 # cH_alcohol1
182 31 2 -0.65 15.5658522 -14.2105684 16.0676765 # OH_alcohol2
183 31 3 0.246 16.0667953 -15.5387392 15.9765024 # CH2_alcohol3
184 31 3 0.246 15.8360872 -16.059164 14.5707312 # CH2_alcohol4
185 31 2 -0.65 14.4392681 -16.067461 14.3023415 # OH_alcohol5
186 31 1 0.404 14.1162624 -15.156292 14.4085951 # cH_alcohol6
187 32 1 0.404 -12.7989988 14.3143673 -6.88211918 # cH_alcohol1
188 32 2 -0.65 -12.0613794 14.7458181 -7.34609604 # OH_alcohol2
189 32 3 0.246 -12.4764328 16.065567 -7.67668486 # CH2_alcohol3
190 32 3 0.246 -13.684741 15.9900169 -8.59022045 # CH2_alcohol4
191 32 2 -0.65 -13.3235559 15.3018847 -9.78153324 # OH_alcohol5
192 32 1 0.404 -13.0084934 14.4185028 -9.52418995 # cH_alcohol6
193 33 1 0.404 -13.1184216 8.17240143 -3.18055606 # cH_alcohol1
194 33 2 -0.65 -12.5792255 8.01980209 -2.38589311 # OH_alcohol2
195 33 3 0.246 -13.2989168 8.53798008 -1.27376294 # CH2_alcohol3
196 33 3 0.246 -13.5122128 10.0263681 -1.47243202 # CH2_alcohol4
197 33 2 -0.65 -12.2463121 10.6702662 -1.550511 # OH_alcohol5
198 33 1 0.404 -11.7614908 10.2716942 -2.29343796 # cH_alcohol6
199 34 1 0.404 9.04298592 -14.657177 -5.63784122 # cH_alcohol1
200 34 2 -0.65 9.48142719 -14.7362375 -6.50214815 # OH_alcohol2
201 34 3 0.246 10.1242418 -16.0044994 -6.5421052 # CH2_alcohol3
202 34 3 0.246 11.1571798 -16.0708256 -5.43354607 # CH2_alcohol4
203 34 2 -0.65 12.1256571 -15.049715 -5.63992214 # OH_alcohol5
204 34 1 0.404 11.6554089 -14.198432 -5.64609718 # cH_alcohol6
205 35 1 0.404 -6.18139505 -8.89101696 14.1626968 # cH_alcohol1
206 35 2 -0.65 -5.94138384 -8.19721031 14.8002968 # OH_alcohol2
207 35 3 0.246 -6.46948195 -8.57661438 16.0653896 # CH2_alcohol3
208 35 3 0.246 -7.9790678 -8.67900562 15.9608545 # CH2_alcohol4
209 35 2 -0.65 -8.50624371 -7.40912485 15.5965815 # OH_alcohol5
210 35 1 0.404 -8.10095596 -7.15706921 14.7491961 # cH_alcohol6
211 36 1 0.404 2.93406105 12.0922508 12.043932 # cH_alcohol1
212 36 2 -0.65 2.66948009 12.8782864 11.5363359 # OH_alcohol2
213 36 3 0.246 2.16311598 13.8342943 12.4598837 # CH2_alcohol3
214 36 3 0.246 0.955945015 13.2482796 13.1666994 # CH2_alcohol4
215 36 2 -0.65 -0.0477689989 12.9526463 12.2031822 # OH_alcohol5
216 36 1 0.404 0.336088002 12.3280458 11.5641336 # cH_alcohol6
217 37 1 0.404 3.34786701 -7.25722504 6.87498093 # cH_alcohol1
218 37 2 -0.65 4.17402792 -6.79194403 7.09057188 # OH_alcohol2
219 37 3 0.246 4.25524712 -6.69724798 8.50751591 # CH2_alcohol3
220 37 3 0.246 3.06901693 -5.90265083 9.01911831 # CH2_alcohol4
221 37 2 -0.65 3.11057496 -4.59517002 8.46057415 # OH_alcohol5
222 37 1 0.404 3.09222102 -4.69049311 7.49288082 # cH_alcohol6
223 38 1 0.404 -14.265377 9.61087894 11.3748026 # cH_alcohol1
224 38 2 -0.65 -14.80861 9.47531414 12.1698046 # OH_alcohol2
225 38 3 0.246 -16.0683842 10.0940161 11.9385662 # CH2_alcohol3
226 38 3 0.246 -15.8559465 11.5778923 11.707818 # CH2_alcohol4
227 38 2 -0.65 -15.2618313 12.1475735 12.8678589 # OH_alcohol5
228 38 1 0.404 -14.4225874 11.6817923 13.0246134 # cH_alcohol6
229 39 1 0.404 12.3134069 7.42991209 -4.22039795 # cH_alcohol1
230 39 2 -0.65 11.7087088 7.4380579 -4.98183203 # OH_alcohol2
231 39 3 0.246 11.1092691 8.72673225 -5.03917408 # CH2_alcohol3
232 39 3 0.246 10.3295269 8.96706772 -3.76069689 # CH2_alcohol4
233 39 2 -0.65 9.30953789 7.98222113 -3.64709592 # OH_alcohol5
234 39 1 0.404 9.74301815 7.11161995 -3.64850903 # cH_alcohol6
235 40 1 0.404 -6.502841 0.377746999 -6.73382092 # cH_alcohol1
236 40 2 -0.65 -6.89710379 -0.0644870028 -5.96278715 # OH_alcohol2
237 40 3 0.246 -8.28307629 0.255124986 -5.94781113 # CH2_alcohol3
238 40 3 0.246 -8.4429903 1.75759006 -5.81631899 # CH2_alcohol4
239 40 2 -0.65 -7.85267305 2.18190098 -4.59374189 # OH_alcohol5
240 40 1 0.404 -6.91687393 1.91788197 -4.61442709 # cH_alcohol6
241 41 1 0.404 0.852756023 4.22649813 0.105842002 # cH_alcohol1
242 41 2 -0.65 1.286834 5.09091997 0.00654800003 # OH_alcohol2
243 41 3 0.246 1.397017 5.35758591 -1.38630605 # CH2_alcohol3
244 41 3 0.246 2.24601603 4.27876806 -2.03098989 # CH2_alcohol4
245 41 2 -0.65 3.54315996 4.29857111 -1.44769704 # OH_alcohol5
246 41 1 0.404 3.43577695 4.15204477 -0.492264003 # cH_alcohol6
247 42 1 0.404 -14.139123 6.62161016 10.6266127 # cH_alcohol1
248 42 2 -0.65 -14.9040995 6.54578018 10.0311556 # OH_alcohol2
249 42 3 0.246 -16.066885 6.42200518 10.8410339 # CH2_alcohol3
250 42 3 0.246 -15.9486876 5.16968489 11.6883755 # CH2_alcohol4
251 42 2 -0.65 -15.853013 4.03759813 10.8325529 # OH_alcohol5
252 42 1 0.404 -15.0735588 4.16570377 10.2651968 # cH_alcohol6
253 43 1 0.404 13.7763443 11.6941843 6.95706081 # cH_alcohol1
254 43 2 -0.65 13.8699923 11.7065954 7.92483282 # OH_alcohol2
255 43 3 0.246 15.26017 11.654685 8.22149086 # CH2_alcohol3
256 43 3 0.246 15.836997 10.3668814 7.6655302 # CH2_alcohol4
257 43 2 -0.65 15.1863384 9.26260185 8.28230762 # OH_alcohol5
258 43 1 0.404 14.2351627 9.34322357 8.09624577 # cH_alcohol6
259 44 1 0.404 3.89437604 6.82571602 -12.2223654 # cH_alcohol1
260 44 2 -0.65 3.65887189 6.38894415 -11.386138 # OH_alcohol2
261 44 3 0.246 2.26617289 6.58795214 -11.176177 # CH2_alcohol3
262 44 3 0.246 1.98859894 8.07557869 -11.0752792 # CH2_alcohol4
263 44 2 -0.65 2.70826602 8.60804176 -9.96994305 # OH_alcohol5
264 44 1 0.404 3.65153694 8.42518044 -10.1204576 # cH_alcohol6
265 45 1 0.404 7.89848614 8.00490284 14.4150372 # cH_alcohol1
266 45 2 -0.65 7.07001686 8.24016476 14.8664761 # OH_alcohol2
267 45 3 0.246 7.00642014 7.48153687 16.0680313 # CH2_alcohol3
268 45 3 0.246 7.00174379 6.00504398 15.7213182 # CH2_alcohol4
269 45 2 -0.65 5.85713577 5.71847677 14.9269886 # OH_alcohol5
270 45 1 0.404 5.90625715 6.27681398 14.1321936 # cH_alcohol6
271 46 1 0.404 -5.77153778 11.6767969 14.6916533 # cH_alcohol1
272 46 2 -0.65 -5.78154993 11.6947937 15.6638069 # OH_alcohol2
273 46 3 0.246 -6.91567421 12.4529247 16.0666676 # CH2_alcohol3
274 46 3 0.246 -6.78420019 13.8644276 15.5275602 # CH2_alcohol4
275 46 2 -0.65 -5.60965014 14.4592934 16.0658665 # OH_alcohol5
276 46 1 0.404 -4.8556881 13.9016476 15.8081331 # cH_alcohol6
277 47 1 0.404 11.6605892 1.83511698 5.09123516 # cH_alcohol1
278 47 2 -0.65 12.2789564 2.51121497 5.41684294 # OH_alcohol2
279 47 3 0.246 12.2205133 3.61316609 4.51929998 # CH2_alcohol3
280 47 3 0.246 12.645133 3.15004802 3.13890791 # CH2_alcohol4
281 47 2 -0.65 13.9823437 2.66927791 3.20163703 # OH_alcohol5
282 47 1 0.404 14.0014801 1.94352198 3.84875798 # cH_alcohol6
283 48 1 0.404 -9.99300098 -12.7964621 1.15152204 # cH_alcohol1
284 48 2 -0.65 -9.24577522 -13.3517609 1.43224096 # OH_alcohol2
285 48 3 0.246 -8.50170708 -12.6143789 2.39449096 # CH2_alcohol3
286 48 3 0.246 -7.98382902 -11.3424826 1.75079298 # CH2_alcohol4
287 48 2 -0.65 -7.13187981 -11.6856413 0.664683998 # OH_alcohol5
288 48 1 0.404 -7.65384722 -12.2199821 0.0418820009 # cH_alcohol6
289 49 1 0.404 12.2796841 11.0896816 -10.1695166 # cH_alcohol1
290 49 2 -0.65 12.9298744 10.9099302 -10.8698387 # OH_alcohol2
291 49 3 0.246 12.9485054 12.0374136 -11.7368612 # CH2_alcohol3
292 49 3 0.246 11.5714216 12.2151918 -12.3470259 # CH2_alcohol4
293 49 2 -0.65 11.2434721 11.0532169 -13.0990028 # OH_alcohol5
294 49 1 0.404 11.2751608 10.2941198 -12.4918623 # cH_alcohol6
295 50 1 0.404 15.0957279 -7.12318516 -8.76348495 # cH_alcohol1
296 50 2 -0.65 15.7781572 -6.45486498 -8.94555092 # OH_alcohol2
297 50 3 0.246 15.9141874 -5.65253019 -7.77891111 # CH2_alcohol3
298 50 3 0.246 14.5906019 -4.97054386 -7.49032402 # CH2_alcohol4
299 50 2 -0.65 14.2473078 -4.13861418 -8.59179974 # OH_alcohol5
300 50 1 0.404 14.1983118 -4.70480585 -9.38102722 # cH_alcohol6
301 51 1 0.404 -15.2385378 -9.21904659 -10.3087406 # cH_alcohol1
302 51 2 -0.65 -14.7492256 -9.82230854 -9.72379875 # OH_alcohol2
303 51 3 0.246 -15.6360292 -10.2282934 -8.68839931 # CH2_alcohol3
304 51 3 0.246 -16.0805817 -9.00503731 -7.90975904 # CH2_alcohol4
305 51 2 -0.65 -14.9396868 -8.38371944 -7.33050919 # OH_alcohol5
306 51 1 0.404 -14.3344431 -8.15118885 -8.05539703 # cH_alcohol6
307 52 1 0.404 -8.92184067 -7.67496586 3.84767389 # cH_alcohol1
308 52 2 -0.65 -8.78364086 -8.23587608 3.06550503 # OH_alcohol2
309 52 3 0.246 -10.0465517 -8.41011238 2.43463802 # CH2_alcohol3
310 52 3 0.246 -10.9914436 -9.09867191 3.40072703 # CH2_alcohol4
311 52 2 -0.65 -10.4596252 -10.3732615 3.74101806 # OH_alcohol5
312 52 1 0.404 -9.58222389 -10.2277832 4.13453579 # cH_alcohol6
313 53 1 0.404 11.1414499 -15.3986559 16.06604 # cH_alcohol1
314 53 2 -0.65 11.5961876 -15.0994043 15.2603292 # OH_alcohol2
315 53 3 0.246 12.3338842 -13.9298754 15.5939493 # CH2_alcohol3
316 53 3 0.246 11.3727312 -12.8577023 16.0702801 # CH2_alcohol4
317 53 2 -0.65 10.461791 -12.5519009 15.0215282 # OH_alcohol5
318 53 1 0.404 9.99917698 -13.3747759 14.7876062 # cH_alcohol6
319 54 1 0.404 -0.854358971 10.0199976 6.85742617 # cH_alcohol1
320 54 2 -0.65 -0.680284023 9.56918812 6.01363897 # OH_alcohol2
321 54 3 0.246 -1.309129 10.3254681 4.98607397 # CH2_alcohol3
322 54 3 0.246 -2.80250001 10.3691721 5.24721479 # CH2_alcohol4
323 54 2 -0.65 -3.31545496 9.04258728 5.23119402 # OH_alcohol5
324 54 1 0.404 -2.84284806 8.53866386 5.91570807 # cH_alcohol6
325 55 1 0.404 -4.08679199 8.94626713 16.0405235 # cH_alcohol1
326 55 2 -0.65 -4.63546991 8.26165009 15.6212864 # OH_alcohol2
327 55 3 0.246 -4.15707397 6.99779701 16.0652542 # CH2_alcohol3
328 55 3 0.246 -2.71259499 6.83560324 15.6323175 # CH2_alcohol4
329 55 2 -0.65 -2.64497304 6.88800716 14.2124977 # OH_alcohol5
330 55 1 0.404 -3.01230097 7.74445391 13.9342508 # cH_alcohol6
331 56 1 0.404 16.0662651 14.0385456 14.2225962 # cH_alcohol1
332 56 2 -0.65 16.0304298 14.7540407 13.5651083 # OH_alcohol2
333 56 3 0.246 16.0665798 15.987812 14.2720718 # CH2_alcohol3
334 56 3 0.246 14.8597507 16.0693359 15.1870489 # CH2_alcohol4
335 56 2 -0.65 13.6761742 16.0166683 14.3999147 # OH_alcohol5
336 56 1 0.404 13.6953783 15.1829853 13.8994598 # cH_alcohol6
337 57 1 0.404 13.2065868 -1.70695198 7.63010788 # cH_alcohol1
338 57 2 -0.65 13.316884 -2.64517593 7.39972115 # OH_alcohol2
339 57 3 0.246 14.2365685 -3.20882297 8.32696438 # CH2_alcohol3
340 57 3 0.246 15.5661726 -2.48950911 8.20448685 # CH2_alcohol4
341 57 2 -0.65 16.0679379 -2.66314101 6.8849082 # OH_alcohol5
342 57 1 0.404 15.4044456 -2.3045609 6.2708621 # cH_alcohol6
343 58 1 0.404 0.923662007 -9.41106701 -13.9031897 # cH_alcohol1
344 58 2 -0.65 0.0182610005 -9.12275124 -13.6967201 # OH_alcohol2
345 58 3 0.246 -0.844775975 -9.68561268 -14.6773567 # CH2_alcohol3
346 58 3 0.246 -0.440811008 -9.17132092 -16.0457783 # CH2_alcohol4
347 58 2 -0.65 -0.571359992 -7.75508022 -16.0664215 # OH_alcohol5
348 58 1 0.404 -0.00151800003 -7.39920092 -15.3632259 # cH_alcohol6
349 59 1 0.404 -7.77193213 -5.79614496 13.1291456 # cH_alcohol1
350 59 2 -0.65 -7.18456602 -5.17842913 13.5970507 # OH_alcohol2
351 59 3 0.246 -7.99332905 -4.38951015 14.4612293 # CH2_alcohol3
352 59 3 0.246 -8.99675941 -3.61442304 13.6289854 # CH2_alcohol4
353 59 2 -0.65 -8.2956686 -2.75848699 12.7350874 # OH_alcohol5
354 59 1 0.404 -7.7234211 -3.31863809 12.1831675 # cH_alcohol6
355 60 1 0.404 2.77031994 5.18319416 7.36047506 # cH_alcohol1
356 60 2 -0.65 1.90504599 4.84312677 7.64536524 # OH_alcohol2
357 60 3 0.246 1.93642294 4.72536993 9.06256104 # CH2_alcohol3
358 60 3 0.246 3.02750993 3.7472291 9.45375156 # CH2_alcohol4
359 60 2 -0.65 2.73657393 2.47598195 8.88586521 # OH_alcohol5
360 60 1 0.404 2.68331695 2.59231591 7.92176819 # cH_alcohol6
361 61 1 0.404 -9.64503288 -1.46837103 -15.2759333 # cH_alcohol1
362 61 2 -0.65 -9.48630714 -0.879923999 -14.5182772 # OH_alcohol2
363 61 3 0.246 -10.0304184 0.393474013 -14.8433857 # CH2_alcohol3
364 61 3 0.246 -9.32389832 0.934508026 -16.0715446 # CH2_alcohol4
365 61 2 -0.65 -7.938272 1.07830906 -15.7842007 # OH_alcohol5
366 61 1 0.404 -7.60079622 0.202691004 -15.5287457 # cH_alcohol6
367 62 1 0.404 9.23525524 -9.31997776 4.69442081 # cH_alcohol1
368 62 2 -0.65 9.08314133 -9.41436768 3.73867011 # OH_alcohol2
369 62 3 0.246 7.6817832 -9.55545044 3.53970695 # CH2_alcohol3
370 62 3 0.246 7.20226622 -10.799839 4.26208019 # CH2_alcohol4
371 62 2 -0.65 7.86726189 -11.9352827 3.72193599 # OH_alcohol5
372 62 1 0.404 8.82289219 -11.7957401 3.83661509 # cH_alcohol6
373 63 1 0.404 9.44289112 -7.60889482 8.77142811 # cH_alcohol1
374 63 2 -0.65 8.80538464 -8.17052174 8.29849052 # OH_alcohol2
375 63 3 0.246 7.57729101 -8.12128258 9.01449013 # CH2_alcohol3
376 63 3 0.246 7.79871988 -8.66118145 10.4143982 # CH2_alcohol4
377 63 2 -0.65 8.23455334 -10.0123463 10.3271589 # OH_alcohol5
378 63 1 0.404 9.05301476 -10.0216484 9.80191135 # cH_alcohol6
379 64 1 0.404 12.4972935 2.851686 8.32553864 # cH_alcohol1
380 64 2 -0.65 12.3592653 3.76213408 8.0132246 # OH_alcohol2
381 64 3 0.246 11.1681929 4.24756193 8.62068176 # CH2_alcohol3
382 64 3 0.246 10.0036192 3.37512112 8.1930418 # CH2_alcohol4
383 64 2 -0.65 9.86768436 3.44300795 6.77878618 # OH_alcohol5
384 64 1 0.404 10.7070198 3.14243102 6.39016914 # cH_alcohol6
385 65 1 0.404 -6.99255705 6.65608788 -5.21768093 # cH_alcohol1
386 65 2 -0.65 -6.97564507 6.6154089 -6.18905401 # OH_alcohol2
387 65 3 0.246 -6.05356121 5.597579 -6.55929613 # CH2_alcohol3
388 65 3 0.246 -4.67758512 5.96223402 -6.03586483 # CH2_alcohol4
389 65 2 -0.65 -4.27121115 7.19475889 -6.61805916 # OH_alcohol5
390 65 1 0.404 -4.93724108 7.86284494 -6.38158894 # cH_alcohol6
391 66 1 0.404 11.2384653 -9.82124519 -11.6318283 # cH_alcohol1
392 66 2 -0.65 10.3008986 -10.0757818 -11.6729212 # OH_alcohol2
393 66 3 0.246 10.0488911 -10.573123 -12.9815226 # CH2_alcohol3
394 66 3 0.246 10.3284578 -9.47563934 -13.9903011 # CH2_alcohol4
395 66 2 -0.65 9.46196747 -8.37730598 -13.7332668 # OH_alcohol5
396 66 1 0.404 9.62780285 -8.08187771 -12.8216352 # cH_alcohol6
397 67 1 0.404 4.95438719 6.87926292 8.30447292 # cH_alcohol1
398 67 2 -0.65 4.77137899 7.6221261 8.9046154 # OH_alcohol2
399 67 3 0.246 4.85745811 8.81998825 8.14237309 # CH2_alcohol3
400 67 3 0.246 6.2595439 8.94792366 7.57841492 # CH2_alcohol4
401 67 2 -0.65 7.18836784 9.01098347 8.65382957 # OH_alcohol5
402 67 1 0.404 7.08213091 8.19944763 9.17916584 # cH_alcohol6
403 68 1 0.404 -5.01148319 13.5120506 11.8235731 # cH_alcohol1
404 68 2 -0.65 -5.04607677 13.4486742 12.7932596 # OH_alcohol2
405 68 3 0.246 -3.75376511 13.0609341 13.2436867 # CH2_alcohol3
406 68 3 0.246 -3.40889692 11.7077427 12.6519089 # CH2_alcohol4
407 68 2 -0.65 -4.36402893 10.7508802 13.0938854 # OH_alcohol5
408 68 1 0.404 -5.24046707 11.0590506 12.8062363 # cH_alcohol6
409 69 1 0.404 6.300138 13.6080112 -3.3452971 # cH_alcohol1
410 69 2 -0.65 5.99649906 12.6921978 -3.466115 # OH_alcohol2
411 69 3 0.246 4.68673992 12.5993462 -2.91911888 # CH2_alcohol3
412 69 3 0.246 4.74341917 12.9314413 -1.44034803 # CH2_alcohol4
413 69 2 -0.65 5.59014988 11.9941521 -0.786327004 # OH_alcohol5
414 69 1 0.404 6.46653509 12.0514879 -1.20407796 # cH_alcohol6
415 70 1 0.404 1.57038903 -6.41562223 5.93472004 # cH_alcohol1
416 70 2 -0.65 1.613796 -5.4587059 6.10185623 # OH_alcohol2
417 70 3 0.246 0.380470991 -5.0709672 6.69503689 # CH2_alcohol3
418 70 3 0.246 -0.749579012 -5.37364292 5.72982311 # CH2_alcohol4
419 70 2 -0.65 -0.551397026 -4.62812901 4.53477621 # OH_alcohol5
420 70 1 0.404 0.313562006 -4.88407516 4.17119598 # cH_alcohol6
421 71 1 0.404 -8.79167271 -15.8123121 6.18060207 # cH_alcohol1
422 71 2 -0.65 -9.3057127 -15.4128752 6.90290403 # OH_alcohol2
423 71 3 0.246 -10.5653763 -16.0720634 6.94780016 # CH2_alcohol3
424 71 3 0.246 -11.2821493 -15.8599339 5.62814093 # CH2_alcohol4
425 71 2 -0.65 -11.4909267 -14.4666662 5.43212795 # OH_alcohol5
426 71 1 0.404 -10.6187963 -14.0364237 5.44364023 # cH_alcohol6
427 72 1 0.404 2.04430509 -3.96912694 2.14809299 # cH_alcohol1
428 72 2 -0.65 2.15290093 -3.68952298 3.07304406 # OH_alcohol2
429 72 3 0.246 1.48943603 -2.44036698 3.22377801 # CH2_alcohol3
430 72 3 0.246 2.13288212 -1.42375302 2.30034089 # CH2_alcohol4
431 72 2 -0.65 3.50106502 -1.272035 2.65847993 # OH_alcohol5
432 72 1 0.404 3.92101312 -2.14603209 2.58347893 # cH_alcohol6
433 73 1 0.404 10.3967571 7.2383132 -8.40120983 # cH_alcohol1
434 73 2 -0.65 10.8005676 8.10638523 -8.23122692 # OH_alcohol2
435 73 3 0.246 11.9435682 8.21896362 -9.07037735 # CH2_alcohol3
436 73 3 0.246 12.9254017 7.11752892 -8.71951389 # CH2_alcohol4
437 73 2 -0.65 13.325551 7.26735687 -7.36281204 # OH_alcohol5
438 73 1 0.404 12.5228386 7.22467518 -6.81537914 # cH_alcohol6
439 74 1 0.404 -9.76025486 0.147137001 10.0314131 # cH_alcohol1
440 74 2 -0.65 -10.206315 0.921957016 10.413764 # OH_alcohol2
441 74 3 0.246 -10.1951866 0.76829201 11.8278217 # CH2_alcohol3
442 74 3 0.246 -10.952261 -0.493750989 12.1943588 # CH2_alcohol4
443 74 2 -0.65 -12.2975607 -0.374029994 11.7482166 # OH_alcohol5
444 74 1 0.404 -12.2745094 -0.232171997 10.7863445 # cH_alcohol6
445 75 1 0.404 15.4741087 -7.97773314 -3.42158604 # cH_alcohol1
446 75 2 -0.65 15.2139301 -8.74153805 -2.87898493 # OH_alcohol2
447 75 3 0.246 13.8325539 -8.98460579 -3.11566305 # CH2_alcohol3
448 75 3 0.246 13.0366287 -7.76272392 -2.69880605 # CH2_alcohol4
449 75 2 -0.65 13.2384462 -7.52889013 -1.31035495 # OH_alcohol5
450 75 1 0.404 14.1928482 -7.404037 -1.171139 # cH_alcohol6
451 76 1 0.404 7.27860785 -1.12299705 -9.50393105 # cH_alcohol1