LAMMPS data file
# Generated via moleculegraph
# Use if there are more then one bond style or dihedral style

3 atom types
8 bond types
2 angle types
2 dihedral types

3000 atoms
6500 bonds
2000 angles
1500 dihedrals

-18.484860472529817 18.484860472529817 xlo xhi
-18.484860472529817 18.484860472529817 ylo yhi
-18.484860472529817 18.484860472529817 zlo zhi

Masses

1 1.0 # H
2 17.007 # OH_alcohol
3 14.027 # CH2_alcohol

# Elements

Bond Coeffs

1 harmonic 1000.0 0.97 # OH_alcohol cH_alcohol
2 harmonic 1000.0 1.42 # CH2_alcohol OH_alcohol
3 table    # cH_alcohol CH2_alcohol
4 table    # cH_alcohol OH_alcohol
5 table    # cH_alcohol cH_alcohol
6 table    # OH_alcohol CH2_alcohol
7 table    # OH_alcohol OH_alcohol
8 table    # CH2_alcohol CH2_alcohol

Angle Coeffs

1 45.6354 107.4 # CH2_alcohol OH_alcohol cH_alcohol
2 61.8104 113.5 # CH2_alcohol CH2_alcohol OH_alcohol

Dihedral Coeffs

1 opls 0.3257 0.1465 1.2068 0.0 # CH2_alcohol CH2_alcohol OH_alcohol cH_alcohol
2 nharmonic 8 3.3966 -7.8358 1.8155 6.6448 -7.0705 -0.0781 5.4748 0.2415 0.0 # OH_alcohol CH2_alcohol CH2_alcohol OH_alcohol

Atoms

1 1 1 0.404 -2.631953 -16.5664616 -16.5664825 # H1
2 1 2 -0.65 -2.89578795 -16.3444214 -15.6573086 # O2
3 1 3 0.246 -4.31682014 -16.3770256 -15.6034555 # C3
4 1 3 0.246 -4.87226915 -15.3454237 -16.5665417 # C4
5 1 2 -0.65 -4.41964722 -14.0547705 -16.1759644 # O5
6 1 1 0.404 -3.44727993 -14.0715284 -16.1846256 # H6
7 2 1 0.404 16.5713196 11.8002253 2.3067379 # H1
8 2 2 -0.65 16.4217491 12.7603779 2.341995 # O2
9 2 3 0.246 16.4661064 13.151022 3.70900893 # C3
10 2 3 0.246 15.3660698 12.4311304 4.46527576 # C4
11 2 2 -0.65 14.1070929 12.7991514 3.91505504 # O5
12 2 1 0.404 14.1178722 12.556138 2.97341704 # H6
13 3 1 0.404 9.58686733 1.00633299 10.0474186 # H1
14 3 2 -0.65 9.28065681 0.443064988 10.7784939 # O2
15 3 3 0.246 8.08557034 1.01905704 11.2916183 # C3
16 3 3 0.246 8.38994503 2.4120791 11.808444 # C4
17 3 2 -0.65 9.3500843 2.31972599 12.8538189 # O5
18 3 1 0.404 10.1409407 1.88907003 12.4864864 # H6
19 4 1 0.404 7.50819683 2.45130897 -1.63446105 # H1
20 4 2 -0.65 7.33166504 2.44386697 -0.678277016 # O2
21 4 3 0.246 6.80111694 3.71702194 -0.330585003 # C3
22 4 3 0.246 7.82664585 4.78601789 -0.65585202 # C4
23 4 2 -0.65 9.00387287 4.54685688 0.105820999 # O5
24 4 1 0.404 9.32347775 3.6571579 -0.122525997 # H6
25 5 1 0.404 -0.747555017 14.8924665 9.55676365 # H1
26 5 2 -0.65 0.171553001 14.5804625 9.61509037 # O2
27 5 3 0.246 1.00861204 15.7272081 9.70227242 # C3
28 5 3 0.246 0.829029977 16.5670757 8.45221806 # C4
29 5 2 -0.65 1.20800304 15.7974672 7.31762981 # O5
30 5 1 0.404 0.647417009 15.002862 7.30351305 # H6
31 6 1 0.404 -9.87264538 -10.0156841 -5.31045103 # H1
32 6 2 -0.65 -10.2461491 -10.6696358 -4.69535017 # O2
33 6 3 0.246 -11.6628923 -10.5924692 -4.79623508 # C3
34 6 3 0.246 -12.1119661 -9.1989727 -4.40030003 # C4
35 6 2 -0.65 -11.7255373 -8.95188618 -3.05388808 # O5
36 6 1 0.404 -10.7589884 -9.04820919 -3.00531411 # H6
37 7 1 0.404 12.860013 -0.481494009 -14.6260214 # H1
38 7 2 -0.65 12.7143841 -1.06686199 -15.3886766 # O2
39 7 3 0.246 12.8403158 -0.277244002 -16.5650883 # C3
40 7 3 0.246 11.7858391 0.812674999 -16.5446758 # C4
41 7 2 -0.65 10.4970789 0.211193994 -16.5217228 # O5
42 7 1 0.404 10.4516382 -0.35135299 -15.729681 # H6
43 8 1 0.404 2.4597671 -10.2968788 -16.5670853 # H1
44 8 2 -0.65 2.40284395 -9.32662582 -16.5374928 # O2
45 8 3 0.246 3.73170495 -8.81925678 -16.5372181 # C3
46 8 3 0.246 4.4559598 -9.32964993 -15.3062782 # C4
47 8 2 -0.65 3.77904606 -8.86653519 -14.1441603 # O5
48 8 1 0.404 2.864784 -9.19518185 -14.1885366 # H6
49 9 1 0.404 3.14419389 -15.4202118 9.22136211 # H1
50 9 2 -0.65 3.57683396 -15.0681973 10.0178642 # O2
51 9 3 0.246 3.41122699 -13.6554899 10.0065594 # C3
52 9 3 0.246 4.07682419 -13.0891829 8.76698685 # C4
53 9 2 -0.65 5.46516085 -13.3963223 8.80431175 # O5
54 9 1 0.404 5.54880714 -14.3641911 8.84998035 # H6
55 10 1 0.404 -1.18285406 6.02925777 -12.2038641 # H1
56 10 2 -0.65 -0.646239996 6.50611687 -11.5479994 # O2
57 10 3 0.246 -0.191290006 7.70760012 -12.158535 # C3
58 10 3 0.246 0.660457015 7.35837412 -13.3638687 # C4
59 10 2 -0.65 1.78354394 6.59865522 -12.9340878 # O5
60 10 1 0.404 1.444664 5.80380106 -12.4877472 # H6
61 11 1 0.404 -8.06425095 -16.5873871 15.5563145 # H1
62 11 2 -0.65 -7.35198212 -15.9293108 15.4847841 # O2
63 11 3 0.246 -7.49566603 -15.0225773 16.5712852 # C3
64 11 3 0.246 -8.84345531 -14.3349409 16.4669628 # C4
65 11 2 -0.65 -8.90175629 -13.6111622 15.2438717 # O5
66 11 1 0.404 -8.76302719 -14.247304 14.5214252 # H6
67 12 1 0.404 5.47304201 14.6123838 2.07620096 # H1
68 12 2 -0.65 4.99189281 14.6773233 1.23371303 # O2
69 12 3 0.246 4.7101779 16.0528679 1.00609195 # C3
70 12 3 0.246 3.84210992 16.5736332 2.13548207 # C4
71 12 2 -0.65 2.62117791 15.8441916 2.15663195 # O5
72 12 1 0.404 2.84433889 14.9050303 2.2750659 # H6
73 13 1 0.404 16.2142067 8.57082176 15.6389313 # H1
74 13 2 -0.65 16.580431 9.45973778 15.4932775 # O2
75 13 3 0.246 16.1444645 10.2840567 16.5673943 # C3
76 13 3 0.246 14.629035 10.344842 16.5609035 # C4
77 13 2 -0.65 14.1925287 10.9106932 15.3310738 # O5
78 13 1 0.404 14.5354252 10.3502769 14.6139898 # H6
79 14 1 0.404 -14.3753815 10.823863 3.38039207 # H1
80 14 2 -0.65 -14.147891 10.9833107 2.44854808 # O2
81 14 3 0.246 -14.2976236 12.3764029 2.20325208 # C3
82 14 3 0.246 -15.7402496 12.770915 2.45515108 # C4
83 14 2 -0.65 -16.5814686 12.0470333 1.56545901 # O5
84 14 1 0.404 -16.4315529 11.0999107 1.72774899 # H6
85 15 1 0.404 8.64356613 6.45394802 -11.9270267 # H1
86 15 2 -0.65 8.59776306 7.27442598 -12.4468594 # O2
87 15 3 0.246 9.89947319 7.52949095 -12.9604626 # C3
88 15 3 0.246 10.8622484 7.70767117 -11.8021984 # C4
89 15 2 -0.65 10.4439764 8.81793976 -11.0176229 # O5
90 15 1 0.404 9.5392704 8.63461685 -10.7114344 # H6
91 16 1 0.404 -2.22995591 -15.6135426 -3.14947009 # H1
92 16 2 -0.65 -2.50784206 -16.5452023 -3.16674495 # O2
93 16 3 0.246 -3.92427492 -16.567543 -3.29524708 # C3
94 16 3 0.246 -4.5407629 -15.8691683 -2.0983851 # C4
95 16 2 -0.65 -4.16834593 -16.5627861 -0.913730979 # O5
96 16 1 0.404 -3.1967659 -16.5655746 -0.870395005 # H6
97 17 1 0.404 9.1142931 -10.8764877 -8.72395515 # H1
98 17 2 -0.65 10.0610876 -10.8077354 -8.93457317 # O2
99 17 3 0.246 10.7719316 -10.764739 -7.70325279 # C3
100 17 3 0.246 10.3296671 -9.54426956 -6.91895819 # C4
101 17 2 -0.65 10.6288767 -8.37522697 -7.67196417 # O5
102 17 1 0.404 10.1618795 -8.44810963 -8.52193832 # H6
103 18 1 0.404 12.4560442 -3.22629404 -3.71918201 # H1
104 18 2 -0.65 12.5047703 -3.07078505 -2.7605629 # O2
105 18 3 0.246 12.2322969 -1.69294298 -2.53560495 # C3
106 18 3 0.246 13.2811079 -0.858772993 -3.24582911 # C4
107 18 2 -0.65 14.5625029 -1.17412698 -2.71499491 # O5
108 18 1 0.404 14.7069139 -2.1267221 -2.84751892 # H6
109 19 1 0.404 5.98461008 0.677541971 -8.67582512 # H1
110 19 2 -0.65 5.99244785 1.55074799 -8.24808979 # O2
111 19 3 0.246 5.8425808 2.52947903 -9.2693243 # C3
112 19 3 0.246 7.0069828 2.41938996 -10.2348862 # C4
113 19 2 -0.65 8.21864796 2.66146207 -9.5302763 # O5
114 19 1 0.404 8.2772398 2.00398898 -8.81602764 # H6
115 20 1 0.404 14.939765 1.87362897 -14.8714199 # H1
116 20 2 -0.65 14.4703598 2.58814406 -15.3347054 # O2
117 20 3 0.246 15.134697 2.80431104 -16.5737476 # C3
118 20 3 0.246 16.5668812 3.22227693 -16.3009605 # C4
119 20 2 -0.65 16.5628319 4.43378305 -15.5556803 # O5
120 20 1 0.404 16.0709591 4.26873493 -14.733079 # H6
121 21 1 0.404 4.88822317 -15.3209839 -15.640398 # H1
122 21 2 -0.65 5.45060587 -15.2113333 -16.4260254 # O2
123 21 3 0.246 6.22746992 -16.3946953 -16.5654087 # C3
124 21 3 0.246 7.09404802 -16.5657692 -15.332509 # C4
125 21 2 -0.65 7.96438885 -15.4465694 -15.2180471 # O5
126 21 1 0.404 7.40946102 -14.6497917 -15.1627712 # H6
127 22 1 0.404 16.5259876 3.15724492 10.7410364 # H1
128 22 2 -0.65 15.874424 3.27551699 11.453064 # O2
129 22 3 0.246 16.3983307 2.65475202 12.6207399 # C3
130 22 3 0.246 16.5988865 1.17643201 12.3475904 # C4
131 22 2 -0.65 15.3432207 0.588696003 12.0296669 # O5
132 22 1 0.404 14.9906778 1.05579197 11.2528868 # H6
133 23 1 0.404 -15.9543972 7.47223806 7.0877161 # H1
134 23 2 -0.65 -15.1638165 7.81714296 7.53663778 # O2
135 23 3 0.246 -15.5781527 8.33936405 8.79318333 # C3
136 23 3 0.246 -16.5684776 9.46401501 8.55934238 # C4
137 23 2 -0.65 -15.9329872 10.4941034 7.81216288 # O5
138 23 1 0.404 -15.6266012 10.1019659 6.97657394 # H6
139 24 1 0.404 -1.94872904 -4.20335388 -14.6275616 # H1
140 24 2 -0.65 -1.90559602 -3.60752392 -15.3947859 # O2
141 24 3 0.246 -1.937971 -4.41405106 -16.5660076 # C3
142 24 3 0.246 -0.735085011 -5.33780622 -16.5640621 # C4
143 24 2 -0.65 0.451921999 -4.55410099 -16.569418 # O5
144 24 1 0.404 0.430278987 -3.98625994 -15.7801514 # H6
145 25 1 0.404 3.430794 14.9035892 -15.6402073 # H1
146 25 2 -0.65 3.31361008 15.1736107 -16.5669556 # O2
147 25 3 0.246 2.83713794 16.5138607 -16.5657787 # C3
148 25 3 0.246 1.50476503 16.5646896 -15.8429651 # C4
149 25 2 -0.65 0.572551012 15.7382727 -16.5294209 # O5
150 25 1 0.404 0.939743996 14.8379154 -16.5488472 # H6
151 26 1 0.404 -14.8483276 7.59919786 -15.2460346 # H1
152 26 2 -0.65 -14.869009 7.49807787 -16.2129135 # O2
153 26 3 0.246 -16.2015266 7.16223288 -16.5802002 # C3
154 26 3 0.246 -16.5820255 5.85195494 -15.9178896 # C4
155 26 2 -0.65 -15.7014656 4.83049822 -16.3700504 # O5
156 26 1 0.404 -14.7964354 5.10271692 -16.1405525 # H6
157 27 1 0.404 4.27635717 3.04073095 2.52536511 # H1
158 27 2 -0.65 4.90005207 2.2956109 2.56150389 # O2
159 27 3 0.246 4.32057285 1.21633995 1.83854306 # C3
160 27 3 0.246 3.01247501 0.824464977 2.49852705 # C4
161 27 2 -0.65 3.27290106 0.406260014 3.83287692 # O5
162 27 1 0.404 3.702389 1.14791799 4.29259014 # H6
163 28 1 0.404 -3.93582392 -14.5568399 4.78839684 # H1
164 28 2 -0.65 -4.01352978 -13.7505693 4.25044107 # O2
165 28 3 0.246 -5.28025293 -13.7869549 3.60438895 # C3
166 28 3 0.246 -5.34454489 -15.0100956 2.7099309 # C4
167 28 2 -0.65 -4.32107115 -14.9200211 1.72626698 # O5
168 28 1 0.404 -3.47090006 -14.8582392 2.19450498 # H6
169 29 1 0.404 -5.88496208 -1.34722197 6.22788095 # H1
170 29 2 -0.65 -4.91600418 -1.2658 6.22790003 # O2
171 29 3 0.246 -4.56343222 -0.34474799 7.252913 # C3
172 29 3 0.246 -5.19253111 1.00090301 6.94677114 # C4
173 29 2 -0.65 -4.69327784 1.47413599 5.70177889 # O5
174 29 1 0.404 -4.91413593 0.809378982 5.02711391 # H6
175 30 1 0.404 -9.75845718 -2.81513 6.32085514 # H1
176 30 2 -0.65 -9.41100407 -2.58560395 5.44216204 # O2
177 30 3 0.246 -8.2662077 -1.76376903 5.63535309 # C3
178 30 3 0.246 -8.68035984 -0.503151 6.36991501 # C4
179 30 2 -0.65 -9.63315868 0.200890005 5.58269978 # O5
180 30 1 0.404 -10.386776 -0.395613998 5.43404913 # H6
181 31 1 0.404 -8.89555454 -6.20255613 -7.55042887 # H1
182 31 2 -0.65 -9.07969093 -5.28433895 -7.8121171 # O2
183 31 3 0.246 -9.42387104 -5.29294109 -9.19224834 # C3
184 31 3 0.246 -8.25191879 -5.83014297 -9.99112511 # C4
185 31 2 -0.65 -7.12828922 -4.98023987 -9.79535007 # O5
186 31 1 0.404 -6.93850994 -4.96240902 -8.84166241 # H6
187 32 1 0.404 -11.799674 -15.9007959 7.60527992 # H1
188 32 2 -0.65 -12.2605963 -16.5663338 8.14390659 # O2
189 32 3 0.246 -13.4272041 -15.952219 8.6779356 # C3
190 32 3 0.246 -13.0152044 -14.7811422 9.54919815 # C4
191 32 2 -0.65 -12.2081928 -15.2594662 10.6183777 # O5
192 32 1 0.404 -11.4390306 -15.7069016 10.225893 # H6
193 33 1 0.404 -14.9848328 -10.1001682 12.18713 # H1
194 33 2 -0.65 -15.3167896 -10.5727205 11.4048223 # O2
195 33 3 0.246 -16.5681267 -11.1523561 11.7533531 # C3
196 33 3 0.246 -16.3601131 -12.1295061 12.8944798 # C4
197 33 2 -0.65 -15.4718695 -13.1562481 12.4701824 # O5
198 33 1 0.404 -14.6397467 -12.7299881 12.2023602 # H6
199 34 1 0.404 15.2024708 -0.949693978 -5.4764328 # H1
200 34 2 -0.65 15.1438217 -0.168294996 -6.05217791 # O2
201 34 3 0.246 16.3732929 0.53847599 -5.94184685 # C3
202 34 3 0.246 16.5661526 0.974016011 -4.50192595 # C4
203 34 2 -0.65 15.4971819 1.835765 -4.1305809 # O5
204 34 1 0.404 14.6683931 1.34142005 -4.25134993 # H6
205 35 1 0.404 -13.4448109 11.3072548 8.25360775 # H1
206 35 2 -0.65 -13.1359243 10.7517109 8.98945332 # O2
207 35 3 0.246 -13.6046762 11.3401146 10.1966591 # C3
208 35 3 0.246 -13.02283 12.7347593 10.3258333 # C4
209 35 2 -0.65 -11.6040936 12.6433706 10.3710384 # O5
210 35 1 0.404 -11.3137341 12.2042942 9.55326271 # H6
211 36 1 0.404 -9.36821556 1.98700905 9.95512867 # H1
212 36 2 -0.65 -8.62506104 2.60651302 9.85795403 # O2
213 36 3 0.246 -7.422966 1.85253096 9.95681953 # C3
214 36 3 0.246 -7.36518812 1.18991399 11.3198538 # C4
215 36 2 -0.65 -7.36950493 2.19586611 12.3254642 # O5
216 36 1 0.404 -8.18136787 2.71904993 12.2114038 # H6
217 37 1 0.404 11.2075567 -5.05201292 8.70660973 # H1
218 37 2 -0.65 10.9768629 -4.27807808 9.24819183 # O2
219 37 3 0.246 10.3412342 -3.33295107 8.39613247 # C3
220 37 3 0.246 11.308362 -2.924716 7.30147696 # C4
221 37 2 -0.65 12.4530926 -2.32338405 7.89409685 # O5
222 37 1 0.404 12.8454876 -2.97612405 8.49891853 # H6
223 38 1 0.404 -1.115677 16.5772343 6.37592888 # H1
224 38 2 -0.65 -1.72663105 15.8373003 6.21863699 # O2
225 38 3 0.246 -3.02371502 16.2594814 6.62191582 # C3
226 38 3 0.246 -2.99643803 16.5985126 8.09994698 # C4
227 38 2 -0.65 -2.63365507 15.4366808 8.8359766 # O5
228 38 1 0.404 -1.76231897 15.1479177 8.51466274 # H6
229 39 1 0.404 -15.9685268 -13.313159 6.35642195 # H1
230 39 2 -0.65 -15.3458004 -13.276227 7.10231495 # O2
231 39 3 0.246 -16.0569611 -12.7805557 8.2300806 # C3
232 39 3 0.246 -16.569521 -11.3875113 7.91867685 # C4
233 39 2 -0.65 -15.4628086 -10.5344973 7.6526618 # O5
234 39 1 0.404 -14.97365 -10.9160767 6.90367985 # H6
235 40 1 0.404 10.6179724 15.0380783 -2.74796391 # H1
236 40 2 -0.65 11.2563734 15.6967564 -2.42532611 # O2
237 40 3 0.246 11.5610762 16.5652122 -3.50987005 # C3
238 40 3 0.246 12.1805878 15.7557678 -4.63293219 # C4
239 40 2 -0.65 13.3816214 15.154974 -4.16413212 # O5
240 40 1 0.404 13.1507425 14.5979013 -3.40109992 # H6
241 41 1 0.404 -12.1070156 -15.4999237 -9.91215515 # H1
242 41 2 -0.65 -12.2891273 -16.4483299 -10.0256138 # O2
243 41 3 0.246 -13.4661207 -16.5671425 -10.8154631 # C3
244 41 3 0.246 -14.619977 -15.9055595 -10.0866346 # C4
245 41 2 -0.65 -14.8233051 -16.5659294 -8.84334183 # O5
246 41 1 0.404 -13.9934273 -16.5027447 -8.34018898 # H6
247 42 1 0.404 9.21049404 -0.678038001 -14.838438 # H1
248 42 2 -0.65 9.33754826 -0.716269016 -13.8751612 # O2
249 42 3 0.246 8.54367065 -1.78786695 -13.380456 # C3
250 42 3 0.246 7.08636093 -1.51084495 -13.6963148 # C4
251 42 2 -0.65 6.69370222 -0.303770989 -13.0544443 # O5
252 42 1 0.404 7.27576923 0.40338999 -13.3815145 # H6
253 43 1 0.404 -4.90911484 14.2263641 -15.7500658 # H1
254 43 2 -0.65 -4.60236692 14.7795973 -16.4885426 # O2
255 43 3 0.246 -3.18913507 14.6402407 -16.5701027 # C3
256 43 3 0.246 -2.56862903 15.1234446 -15.2732801 # C4
257 43 2 -0.65 -2.892555 16.4958668 -15.086895 # O5
258 43 1 0.404 -3.86236 16.5675335 -15.0729418 # H6
259 44 1 0.404 14.7297029 -11.9222908 16.1373653 # H1
260 44 2 -0.65 13.9770432 -11.4799585 16.5655632 # O2
261 44 3 0.246 12.8830061 -12.3889465 16.5545349 # C3
262 44 3 0.246 12.532732 -12.7242079 15.1174641 # C4
263 44 2 -0.65 12.1553621 -11.531064 14.4412937 # O5
264 44 1 0.404 12.905468 -10.9145212 14.4966841 # H6
265 45 1 0.404 8.88121891 -14.4083385 1.46709502 # H1
266 45 2 -0.65 9.31793404 -14.7631626 0.674071014 # O2
267 45 3 0.246 10.012538 -15.9432068 1.05919302 # C3
268 45 3 0.246 11.0532475 -15.5863409 2.10314393 # C4
269 45 2 -0.65 11.9774551 -14.6630831 1.54043603 # O5
270 45 1 0.404 11.4723034 -13.8837872 1.25169396 # H6
271 46 1 0.404 6.81561089 3.49471211 4.10652113 # H1
272 46 2 -0.65 7.10503197 3.06761408 4.93073606 # O2
273 46 3 0.246 7.259058 4.08723402 5.91050482 # C3
274 46 3 0.246 8.31588459 5.06868982 5.44133377 # C4
275 46 2 -0.65 9.55111217 4.38098097 5.28487492 # O5
276 46 1 0.404 9.40810013 3.6672411 4.63991213 # H6
277 47 1 0.404 -3.45974994 -15.5320845 -5.53888512 # H1
278 47 2 -0.65 -3.39291501 -15.4395876 -6.50453711 # O2
279 47 3 0.246 -2.67388797 -16.5650597 -6.9940362 # C3
280 47 3 0.246 -1.28674495 -16.5709229 -6.38079596 # C4
281 47 2 -0.65 -0.606400013 -15.3809147 -6.76056194 # O5
282 47 1 0.404 -1.137398 -14.6286287 -6.447577 # H6
283 48 1 0.404 14.6253004 -14.5851431 14.2726879 # H1
284 48 2 -0.65 15.3896484 -14.15767 13.8501396 # O2
285 48 3 0.246 16.5646915 -14.7069969 14.4339266 # C3
286 48 3 0.246 16.5649815 -14.4075298 15.9207296 # C4
287 48 2 -0.65 16.5645962 -12.9978123 16.1102028 # O5
288 48 1 0.404 15.7727175 -12.6443901 15.6698923 # H6
289 49 1 0.404 -8.47599125 16.0764484 -13.5697279 # H1
290 49 2 -0.65 -7.63382006 15.6825542 -13.8545132 # O2
291 49 3 0.246 -7.09271622 16.5169888 -14.8714809 # C3
292 49 3 0.246 -8.05932426 16.5640259 -16.0392647 # C4
293 49 2 -0.65 -8.22850609 15.2492352 -16.5549278 # O5
294 49 1 0.404 -8.56243134 14.6924782 -15.8307943 # H6
295 50 1 0.404 -7.35691118 11.2174006 -7.46063089 # H1
296 50 2 -0.65 -7.50589323 10.3144817 -7.1319232 # O2
297 50 3 0.246 -6.83651781 9.42152023 -8.01388168 # C3
298 50 3 0.246 -7.42445517 9.56606007 -9.40445805 # C4
299 50 2 -0.65 -8.80624008 9.23138809 -9.36119556 # O5
300 50 1 0.404 -9.23181057 9.83049202 -8.72415924 # H6
301 51 1 0.404 9.84963226 9.87258625 1.31478 # H1
302 51 2 -0.65 9.87258911 9.51818848 2.2199769 # O2
303 51 3 0.246 9.26967239 10.4833059 3.07340193 # C3
304 51 3 0.246 10.067481 11.7713642 3.00508595 # C4
305 51 2 -0.65 11.3948784 11.519228 3.44966602 # O5
306 51 1 0.404 11.7694778 10.8304291 2.8742671 # H6
307 52 1 0.404 2.75009704 -11.407362 11.0007534 # H1
308 52 2 -0.65 2.64787292 -10.5141554 11.3712111 # O2
309 52 3 0.246 1.31662798 -10.4026699 11.8597298 # C3
310 52 3 0.246 0.349079013 -10.5954266 10.7077942 # C4
311 52 2 -0.65 0.576393008 -9.58174133 9.73620987 # O5
312 52 1 0.404 1.50217199 -9.65634155 9.44773006 # H6
313 53 1 0.404 9.98813248 -14.6488314 9.12504673 # H1
314 53 2 -0.65 10.1099243 -15.4567547 9.6522398 # O2
315 53 3 0.246 9.87529755 -16.5672569 8.79489899 # C3
316 53 3 0.246 8.45118141 -16.5006866 8.27748203 # C4
317 53 2 -0.65 7.55370903 -16.5634937 9.37921143 # O5
318 53 1 0.404 7.7605648 -15.8168354 9.96705818 # H6
319 54 1 0.404 13.381917 -1.49516797 13.6312828 # H1
320 54 2 -0.65 12.9056082 -0.710895002 13.3094873 # O2
321 54 3 0.246 11.8406239 -1.16541696 12.4833431 # C3
322 54 3 0.246 12.4178658 -1.93380594 11.3100433 # C4
323 54 2 -0.65 13.2570343 -1.067716 10.5557928 # O5
324 54 1 0.404 13.9524403 -0.742327988 11.1527739 # H6
325 55 1 0.404 -5.58186817 15.9526186 -6.87175083 # H1
326 55 2 -0.65 -6.13659096 15.5951967 -7.58592081 # O2
327 55 3 0.246 -7.2237668 16.4929237 -7.77414894 # C3
328 55 3 0.246 -8.02711296 16.5732422 -6.49023008 # C4
329 55 2 -0.65 -8.53622532 15.2818747 -6.17977524 # O5
330 55 1 0.404 -7.77605677 14.6813116 -6.094203 # H6
331 56 1 0.404 6.47251892 8.34255981 3.77142 # H1
332 56 2 -0.65 7.23383379 7.76270294 3.59916306 # O2
333 56 3 0.246 7.110425 7.27768993 2.26768708 # C3
334 56 3 0.246 5.82284784 6.48531389 2.14706898 # C4
335 56 2 -0.65 5.8712492 5.38191986 3.04338694 # O5
336 56 1 0.404 5.99388695 5.73912191 3.93961191 # H6
337 57 1 0.404 -16.4247398 5.48485088 14.6227913 # H1
338 57 2 -0.65 -15.9526567 5.11192989 15.3867121 # O2
339 57 3 0.246 -16.5641479 5.62888098 16.562355 # C3
340 57 3 0.246 -16.4333591 7.13989115 16.5646267 # C4
341 57 2 -0.65 -15.053793 7.4863081 16.5648594 # O5
342 57 1 0.404 -14.6531124 7.08945417 15.7725105 # H6
343 58 1 0.404 4.68970823 -6.00487089 -12.9401817 # H1
344 58 2 -0.65 4.71091413 -5.9874711 -13.9121675 # O2
345 58 3 0.246 3.9320159 -4.87600613 -14.3379126 # C3
346 58 3 0.246 2.50499606 -5.05894423 -13.8579006 # C4
347 58 2 -0.65 1.97240305 -6.24822617 -14.4281282 # O5
348 58 1 0.404 2.54418898 -6.98525095 -14.1529779 # H6
349 59 1 0.404 2.7521441 16.0965538 14.7598429 # H1
350 59 2 -0.65 2.51060605 15.8014498 15.654315 # O2
351 59 3 0.246 3.26619005 16.5742207 16.5790939 # C3
352 59 3 0.246 4.74337482 16.3290501 16.3380985 # C4
353 59 2 -0.65 5.02435112 14.9497919 16.5428085 # O5
354 59 1 0.404 4.46807289 14.4439516 15.9259338 # H6
355 60 1 0.404 9.94437027 9.55961418 8.16270638 # H1
356 60 2 -0.65 9.15788841 8.98903465 8.20002747 # O2
357 60 3 0.246 8.08264542 9.70173359 7.60068703 # C3
358 60 3 0.246 7.83274698 10.9739799 8.38758278 # C4
359 60 2 -0.65 7.47993994 10.6322803 9.72248936 # O5
360 60 1 0.404 8.21415329 10.1145554 10.0949736 # H6
361 61 1 0.404 14.8894453 3.47211504 0.426521987 # H1
362 61 2 -0.65 15.3883305 2.94621992 1.07463896 # O2
363 61 3 0.246 16.3936806 2.23293996 0.364852995 # C3
364 61 3 0.246 15.7302179 1.31321299 -0.642214 # C4
365 61 2 -0.65 14.9015799 0.387439013 0.0502509996 # O5
366 61 1 0.404 14.2489662 0.901453018 0.555956006 # H6
367 62 1 0.404 -8.43161297 -10.2228699 -14.7726221 # H1
368 62 2 -0.65 -8.20576477 -9.94684505 -15.677227 # O2
369 62 3 0.246 -8.86531544 -10.8333654 -16.5729771 # C3
370 62 3 0.246 -8.36875629 -12.2451782 -16.3270588 # C4
371 62 2 -0.65 -6.9679718 -12.2932587 -16.5693398 # O5
372 62 1 0.404 -6.54630423 -11.6520042 -15.9719782 # H6
373 63 1 0.404 -2.63445807 -11.5065632 -9.55547428 # H1
374 63 2 -0.65 -3.46508408 -11.3696175 -10.0421104 # O2
375 63 3 0.246 -4.53252077 -11.4869356 -9.10931301 # C3
376 63 3 0.246 -4.51276588 -12.8788385 -8.50725079 # C4
377 63 2 -0.65 -4.69165277 -13.8356791 -9.54439354 # O5
378 63 1 0.404 -3.97195101 -13.7085533 -10.1860476 # H6
379 64 1 0.404 14.4448833 4.82890177 -6.25953817 # H1
380 64 2 -0.65 14.9652967 4.01154613 -6.17826223 # O2
381 64 3 0.246 16.3377609 4.36304283 -6.30511999 # C3
382 64 3 0.246 16.5653839 4.98399305 -7.66999102 # C4
383 64 2 -0.65 16.2321625 4.0330348 -8.67390823 # O5
384 64 1 0.404 15.3020039 3.78208089 -8.54093742 # H6
385 65 1 0.404 -0.790533006 4.33611679 -14.738739 # H1
386 65 2 -0.65 -0.0640119985 4.62333679 -15.3176861 # O2
387 65 3 0.246 -0.221053004 3.95743704 -16.5647678 # C3
388 65 3 0.246 -0.138043001 2.4598341 -16.3399162 # C4
389 65 2 -0.65 1.13816094 2.14190292 -15.7982264 # O5
390 65 1 0.404 1.23460996 2.63856912 -14.9676399 # H6
391 66 1 0.404 4.75477123 11.768837 4.96028423 # H1
392 66 2 -0.65 4.70241499 12.7095146 4.71967983 # O2
393 66 3 0.246 5.94247198 13.0687246 4.12258482 # C3
394 66 3 0.246 7.05640697 12.8568087 5.1298089 # C4
395 66 2 -0.65 6.82425594 13.6882429 6.26030922 # O5
396 66 1 0.404 5.95543814 13.4482632 6.62557602 # H6
397 67 1 0.404 8.54693604 10.4864788 13.2877531 # H1
398 67 2 -0.65 9.26913738 11.0634642 13.589448 # O2
399 67 3 0.246 9.84735775 11.6643534 12.4371071 # C3
400 67 3 0.246 10.4003468 10.5764828 11.5365477 # C4
401 67 2 -0.65 11.4043674 9.85642815 12.2412958 # O5
402 67 1 0.404 10.9922705 9.48890018 13.0418911 # H6
403 68 1 0.404 -3.96580005 7.6014061 14.6886501 # H1
404 68 2 -0.65 -3.27526593 7.29425812 15.3004751 # O2
405 68 3 0.246 -3.54456997 7.86848021 16.5736752 # C3
406 68 3 0.246 -3.49221492 9.37966156 16.455986 # C4
407 68 2 -0.65 -2.1901629 9.76752186 16.0347576 # O5
408 68 1 0.404 -2.01725101 9.33184624 15.1826191 # H6
409 69 1 0.404 -6.21082306 3.98198104 3.76026893 # H1
410 69 2 -0.65 -5.25398302 3.83948803 3.85856009 # O2
411 69 3 0.246 -4.60301113 4.57920408 2.83271909 # C3
412 69 3 0.246 -5.06364107 4.06385279 1.48272097 # C4
413 69 2 -0.65 -4.71012306 2.6911521 1.36472905 # O5
414 69 1 0.404 -5.13649607 2.21588898 2.09834003 # H6
415 70 1 0.404 -14.6887875 -16.4450283 5.61590099 # H1
416 70 2 -0.65 -15.5237713 -16.0806179 5.95577621 # O2
417 70 3 0.246 -16.5726204 -16.5685425 5.12804413 # C3
418 70 3 0.246 -16.3440189 -16.0912209 3.70671797 # C4
419 70 2 -0.65 -16.3568096 -14.6690187 3.68705511 # O5
420 70 1 0.404 -15.6569672 -14.3625307 4.2888341 # H6
421 71 1 0.404 11.4759293 16.5098381 -11.0321178 # H1
422 71 2 -0.65 11.1520214 16.2884846 -10.1424017 # O2
423 71 3 0.246 12.0982876 15.4079227 -9.54869747 # C3
424 71 3 0.246 12.1968412 14.1485882 -10.3881159 # C4
425 71 2 -0.65 10.9248428 13.5129347 -10.4223423 # O5
426 71 1 0.404 10.2909021 14.1486092 -10.796361 # H6
427 72 1 0.404 5.27578783 4.37089014 15.426815 # H1
428 72 2 -0.65 5.8363061 3.67899609 15.8174667 # O2
429 72 3 0.246 6.81669378 4.32461405 16.620779 # C3
430 72 3 0.246 7.65673494 5.23192787 15.7424984 # C4
431 72 2 -0.65 8.30831718 4.44582415 14.7522011 # O5
432 72 1 0.404 7.61821985 3.98693991 14.2432346 # H6
433 73 1 0.404 3.34093404 -0.456535995 13.1588526 # H1
434 73 2 -0.65 4.19918299 -0.193644002 13.5327559 # O2
435 73 3 0.246 4.08446312 1.15829694 13.9598312 # C3
436 73 3 0.246 3.75676203 2.02938104 12.7622967 # C4
437 73 2 -0.65 4.81038523 1.92760599 11.8121777 # O5
438 73 1 0.404 4.89217615 0.990185976 11.5663977 # H6
439 74 1 0.404 -7.07361078 2.20718193 -9.91837215 # H1
440 74 2 -0.65 -6.40776014 2.27323794 -10.6239119 # O2
441 74 3 0.246 -5.37601995 1.33979201 -10.3281317 # C3
442 74 3 0.246 -4.74981689 1.70046794 -8.99469757 # C4
443 74 2 -0.65 -4.18852806 3.00443912 -9.08313084 # O5
444 74 1 0.404 -4.90614986 3.61539793 -9.32313347 # H6
445 75 1 0.404 -4.85390806 9.88612556 -11.1294355 # H1
446 75 2 -0.65 -4.48373795 8.98784065 -11.0898685 # O2
447 75 3 0.246 -3.89461088 8.71108437 -12.3546343 # C3
448 75 3 0.246 -4.96669483 8.77875996 -13.4252958 # C4
449 75 2 -0.65 -5.96094799 7.79981184 -13.1490173 # O5
450 75 1 0.404 -6.31957197 7.98946619 -12.2651196 # H6
451 76 1 0.404 0.113531999 -6.88904715 9.34483337 # H1
452 76 2 -0.65 0.174129993 -6.622756 10.2780666 # O2
453 76 3 0.246 -0.105897002 -5.22978401 10.3452263 # C3
454 76 3 0.246 0.92663902 -4.47754288 9.52775097 # C4
455 76 2 -0.65 2.21756101 -4.72117186 10.0730705 # O5
456 76 1 0.404 2.3675139 -5.68181801 10.0501223 # H6
457 77 1 0.404 -4.38520002 -14.2857332 7.91325092 # H1
458 77 2 -0.65 -5.14328814 -14.8945541 7.90112495 # O2
459 77 3 0.246 -4.64541578 -16.2037659 8.14888763 # C3
460 77 3 0.246 -3.66814494 -16.5774956 7.05092096 # C4
461 77 2 -0.65 -4.34720182 -16.5648861 5.80114985 # O5
462 77 1 0.404 -4.70924902 -15.6711321 5.67473984 # H6
463 78 1 0.404 -9.07850361 -14.2851105 11.2034111 # H1
464 78 2 -0.65 -8.52099228 -14.0262728 10.4499569 # O2
465 78 3 0.246 -9.0917387 -14.5968618 9.27864647 # C3
466 78 3 0.246 -9.09985161 -16.1071396 9.41743469 # C4
467 78 2 -0.65 -7.76126099 -16.5675964 9.55657291 # O5
468 78 1 0.404 -7.383533 -16.1340084 10.3409052 # H6
469 79 1 0.404 5.86627388 9.42233086 -5.55480003 # H1
470 79 2 -0.65 6.14131308 8.64241123 -6.06625509 # O2
471 79 3 0.246 7.31081295 8.11676788 -5.4504118 # C3
472 79 3 0.246 8.40405655 9.16736221 -5.48694611 # C4
473 79 2 -0.65 8.69396591 9.48853683 -6.84193897 # O5
474 79 1 0.404 7.87054586 9.80863857 -7.2485919 # H6
475 80 1 0.404 12.5172729 14.6340961 14.9616728 # H1
476 80 2 -0.65 12.1534977 15.3999729 14.4856386 # O2
477 80 3 0.246 12.6139593 16.5728874 15.1455975 # C3
478 80 3 0.246 12.1069908 16.5676861 16.5750084 # C4
479 80 2 -0.65 10.6846466 16.5665302 16.5629635 # O5
480 80 1 0.404 10.397584 15.7762604 16.0741692 # H6
481 81 1 0.404 -2.54578495 8.79231834 -6.00336409 # H1
482 81 2 -0.65 -1.989501 8.49175835 -5.26463604 # O2
483 81 3 0.246 -2.77104807 7.60562706 -4.4726429 # C3
484 81 3 0.246 -3.97691894 8.35353947 -3.93713999 # C4
485 81 2 -0.65 -3.53064203 9.43389893 -3.12666702 # O5
486 81 1 0.404 -2.96912599 10.0022182 -3.68125391 # H6
487 82 1 0.404 10.6683922 8.02658176 6.45225191 # H1
488 82 2 -0.65 10.4562273 8.30220699 5.54421806 # O2
489 82 3 0.246 11.2971859 7.56510496 4.66514683 # C3
490 82 3 0.246 12.7453012 7.89119291 4.97642279 # C4
491 82 2 -0.65 12.9618883 9.28218842 4.77288198 # O5
492 82 1 0.404 12.3493166 9.76143074 5.3567791 # H6
493 83 1 0.404 0.0144199999 6.16393518 -1.09976304 # H1
494 83 2 -0.65 -0.182455003 6.18239212 -0.147708997 # O2
495 83 3 0.246 -1.59477794 6.0988822 -0.000520000001 # C3
496 83 3 0.246 -2.23469901 7.29363585 -0.681200981 # C4
497 83 2 -0.65 -1.77009594 8.48571587 -0.0596720017 # O5
498 83 1 0.404 -0.801056027 8.49875736 -0.141182005 # H6
499 84 1 0.404 5.32756281 -16.0316029 4.16785812 # H1
500 84 2 -0.65 5.70254898 -16.1349754 3.27667499 # O2
501 84 3 0.246 7.04161406 -16.5910988 3.42550993 # C3
502 84 3 0.246 7.83396912 -15.5553036 4.19982576 # C4
503 84 2 -0.65 7.83514023 -14.3329306 3.47249603 # O5
504 84 1 0.404 6.90827608 -14.0640402 3.35218906 # H6
505 85 1 0.404 -10.6270952 -6.19664192 -11.4791441 # H1
506 85 2 -0.65 -10.682023 -5.9564662 -12.4197845 # O2
507 85 3 0.246 -11.4831743 -6.93788481 -13.0665226 # C3
508 85 3 0.246 -10.8192682 -8.29360962 -12.9198895 # C4
509 85 2 -0.65 -9.53956223 -8.25313282 -13.5395012 # O5
510 85 1 0.404 -9.02698421 -7.55012894 -13.1048708 # H6
511 86 1 0.404 6.62993813 -1.96034801 9.97113037 # H1
512 86 2 -0.65 6.35416317 -1.38681698 9.2359314 # O2
513 86 3 0.246 5.12922382 -0.768617988 9.61096287 # C3
514 86 3 0.246 4.08430815 -1.84266198 9.84514999 # C4
515 86 2 -0.65 3.88956189 -2.57147288 8.63928318 # O5
516 86 1 0.404 4.74834299 -2.95104694 8.38576412 # H6
517 87 1 0.404 -8.32261467 7.30418205 -14.9653673 # H1
518 87 2 -0.65 -8.76868534 7.16828489 -14.1121016 # O2
519 87 3 0.246 -9.81544685 8.12682533 -14.0183725 # C3
520 87 3 0.246 -9.21709919 9.51952076 -14.0697527 # C4
521 87 2 -0.65 -8.33210659 9.68532467 -12.9686136 # O5
522 87 1 0.404 -7.64987707 8.9954958 -13.0360794 # H6
523 88 1 0.404 -4.89652586 15.7605219 -4.99472904 # H1
524 88 2 -0.65 -4.03016901 15.5456896 -4.60901022 # O2
525 88 3 0.246 -3.12049699 16.5653305 -5.00413895 # C3
526 88 3 0.246 -3.02031112 16.5797806 -6.51741886 # C4
527 88 2 -0.65 -2.53180003 15.3201361 -6.96223497 # O5
528 88 1 0.404 -3.15053797 14.6392784 -6.64688206 # H6
529 89 1 0.404 -10.4700546 15.4948158 -16.0032196 # H1
530 89 2 -0.65 -11.2611237 15.4256945 -16.5644131 # O2
531 89 3 0.246 -12.0805779 16.5557308 -16.2909012 # C3
532 89 3 0.246 -12.4836006 16.5324497 -14.8289518 # C4
533 89 2 -0.65 -13.223526 15.3454981 -14.5703716 # O5
534 89 1 0.404 -12.6548977 14.5910177 -14.8011885 # H6
535 90 1 0.404 -12.866951 2.3173759 16.4417019 # H1
536 90 2 -0.65 -13.7263718 2.19822693 16.0027199 # O2