LAMMPS data file
# Generated via moleculegraph
# Use if there are more then one bond style or dihedral style

3 atom types
8 bond types
2 angle types
2 dihedral types

3000 atoms
6500 bonds
2000 angles
1500 dihedrals

-17.970409038791825 17.970409038791825 xlo xhi
-17.970409038791825 17.970409038791825 ylo yhi
-17.970409038791825 17.970409038791825 zlo zhi

Masses

1 1.008 # H
2 15.999 # OH_alcohol
3 14.027 # CH2_alcohol

# Elements

Bond Coeffs

1 harmonic 200.0 0.97 # OH_alcohol cH_alcohol
2 harmonic 200.0 1.42 # CH2_alcohol OH_alcohol
3 table ../bonded_interactions.table [special][CH2_alcohol][cH_alcohol] # cH_alcohol CH2_alcohol
4 table ../bonded_interactions.table [special][OH_alcohol][cH_alcohol] # cH_alcohol OH_alcohol
5 table ../bonded_interactions.table [special][cH_alcohol][cH_alcohol] # cH_alcohol cH_alcohol
6 table ../bonded_interactions.table [special][CH2_alcohol][OH_alcohol] # OH_alcohol CH2_alcohol
7 table ../bonded_interactions.table [special][OH_alcohol][OH_alcohol] # OH_alcohol OH_alcohol
8 table ../bonded_interactions.table [special][CH2_alcohol][CH2_alcohol] # CH2_alcohol CH2_alcohol

Angle Coeffs

1 45.6354 107.4 # CH2_alcohol OH_alcohol cH_alcohol
2 61.8104 113.5 # CH2_alcohol CH2_alcohol OH_alcohol

Dihedral Coeffs

1 opls 0.3257 0.1465 1.2068 0.0 # CH2_alcohol CH2_alcohol OH_alcohol cH_alcohol
2 nharmonic 8 3.3966 -7.8358 1.8155 6.6448 -7.0705 -0.0781 5.4748 0.2415 # OH_alcohol CH2_alcohol CH2_alcohol OH_alcohol

Atoms

1 1 1 0.404 13.3640194 0.574862003 -3.38319993 # cH_alcohol1
2 1 2 -0.65 13.1274118 0.856961012 -2.48323107 # OH_alcohol2
3 1 3 0.246 13.0356684 -0.311995 -1.67798495 # CH2_alcohol3
4 1 3 0.246 11.9511738 -1.21344495 -2.23612595 # CH2_alcohol4
5 1 2 -0.65 10.7085714 -0.522230029 -2.19916701 # OH_alcohol5
6 1 1 0.404 10.810503 0.28966099 -2.72480512 # cH_alcohol6
7 2 1 0.404 -8.78437805 -10.2914667 5.93781805 # cH_alcohol1
8 2 2 -0.65 -8.24693203 -9.74890423 5.335917 # OH_alcohol2
9 2 3 0.246 -9.01421165 -9.52658939 4.15899181 # CH2_alcohol3
10 2 3 0.246 -9.32304668 -10.8621588 3.51004195 # CH2_alcohol4
11 2 2 -0.65 -8.10169411 -11.5003643 3.15762806 # OH_alcohol5
12 2 1 0.404 -7.58161497 -11.6055632 3.97267604 # cH_alcohol6
13 3 1 0.404 10.2301464 -0.0351909995 16.0684738 # cH_alcohol1
14 3 2 -0.65 10.2816706 0.350634992 15.1774111 # OH_alcohol2
15 3 3 0.246 10.6464968 1.71776104 15.3228893 # CH2_alcohol3
16 3 3 0.246 9.57982254 2.43120098 16.1312656 # CH2_alcohol4
17 3 2 -0.65 8.34033775 2.34984589 15.4382544 # OH_alcohol5
18 3 1 0.404 8.13401604 1.40694797 15.3189754 # cH_alcohol6
19 4 1 0.404 15.6123886 -2.10648799 15.4665022 # cH_alcohol1
20 4 2 -0.65 15.7195511 -1.23259199 15.053791 # OH_alcohol2
21 4 3 0.246 15.1721153 -0.268065006 15.9444628 # CH2_alcohol3
22 4 3 0.246 13.6984978 -0.563162982 16.1485004 # CH2_alcohol4
23 4 2 -0.65 13.0297918 -0.474954993 14.8961992 # OH_alcohol5
24 4 1 0.404 13.4477577 -1.11632502 14.2963638 # cH_alcohol6
25 5 1 0.404 -1.05678904 12.9448881 -1.80174303 # cH_alcohol1
26 5 2 -0.65 -1.76146805 13.4092999 -1.31877601 # OH_alcohol2
27 5 3 0.246 -2.25698805 12.5207434 -0.324681997 # CH2_alcohol3
28 5 3 0.246 -2.82401299 11.2876158 -1.001544 # CH2_alcohol4
29 5 2 -0.65 -3.893399 11.6769056 -1.85481596 # OH_alcohol5
30 5 1 0.404 -3.53625107 12.3116808 -2.49929905 # cH_alcohol6
31 6 1 0.404 -13.9222574 1.89552999 -6.96272421 # cH_alcohol1
32 6 2 -0.65 -13.812829 1.29311502 -7.71812296 # OH_alcohol2
33 6 3 0.246 -15.0483313 1.25995302 -8.42220402 # CH2_alcohol3
34 6 3 0.246 -16.1304111 0.734848022 -7.49828291 # CH2_alcohol4
35 6 2 -0.65 -15.7908936 -0.584253013 -7.08851814 # OH_alcohol5
36 6 1 0.404 -14.9267015 -0.53865099 -6.64473009 # cH_alcohol6
37 7 1 0.404 9.94564247 -0.857508004 -16.1458378 # cH_alcohol1
38 7 2 -0.65 10.2631187 -0.0553059988 -15.697298 # OH_alcohol2
39 7 3 0.246 11.5905533 0.189560995 -16.1459141 # CH2_alcohol3
40 7 3 0.246 12.4656792 -0.990563989 -15.769454 # CH2_alcohol4
41 7 2 -0.65 12.4697742 -1.13248706 -14.3541632 # OH_alcohol5
42 7 1 0.404 11.5481787 -1.26033294 -14.0710182 # cH_alcohol6
43 8 1 0.404 4.84176207 9.23766232 7.7157259 # cH_alcohol1
44 8 2 -0.65 4.74654388 8.81522465 8.58635139 # OH_alcohol2
45 8 3 0.246 5.83321095 9.24998474 9.39470196 # CH2_alcohol3
46 8 3 0.246 7.13488722 8.81284142 8.75064564 # CH2_alcohol4
47 8 2 -0.65 7.15602398 7.39324379 8.6640234 # OH_alcohol5
48 8 1 0.404 6.38343 7.12133121 8.13960361 # cH_alcohol6
49 9 1 0.404 4.70814896 -6.79655695 2.38238597 # cH_alcohol1
50 9 2 -0.65 4.43245983 -7.40325594 3.09049606 # OH_alcohol2
51 9 3 0.246 3.75498891 -6.63248587 4.07550478 # CH2_alcohol3
52 9 3 0.246 4.708323 -5.59229994 4.63176823 # CH2_alcohol4
53 9 2 -0.65 5.81477404 -6.25214195 5.23474407 # OH_alcohol5
54 9 1 0.404 6.23599815 -6.80014086 4.55054998 # cH_alcohol6
55 10 1 0.404 -8.55546379 6.90343904 3.87773705 # cH_alcohol1
56 10 2 -0.65 -7.91963816 7.25281382 3.230304 # OH_alcohol2
57 10 3 0.246 -6.67689323 6.59789705 3.45382905 # CH2_alcohol3
58 10 3 0.246 -6.20079613 6.90670109 4.86032581 # CH2_alcohol4
59 10 2 -0.65 -6.01850224 8.3113308 4.99066782 # OH_alcohol5
60 10 1 0.404 -6.87166405 8.73565102 4.79593611 # cH_alcohol6
61 11 1 0.404 3.63899589 -3.33860898 1.41194606 # cH_alcohol1
62 11 2 -0.65 3.78932405 -4.20876694 1.81905103 # OH_alcohol2
63 11 3 0.246 4.75389719 -4.89137983 1.02725995 # CH2_alcohol3
64 11 3 0.246 4.20661116 -5.06790209 -0.376156986 # CH2_alcohol4
65 11 2 -0.65 3.01707697 -5.84546185 -0.316017985 # OH_alcohol5
66 11 1 0.404 2.39028692 -5.37584019 0.260560989 # cH_alcohol6
67 12 1 0.404 5.60584688 1.55600595 8.82036495 # cH_alcohol1
68 12 2 -0.65 5.43561792 1.10186005 9.66314602 # OH_alcohol2
69 12 3 0.246 4.70475292 1.99716699 10.4923372 # CH2_alcohol3
70 12 3 0.246 5.54048777 3.23892093 10.7369957 # CH2_alcohol4
71 12 2 -0.65 6.74313211 2.86598396 11.3986378 # OH_alcohol5
72 12 1 0.404 7.20345306 2.22630501 10.8287535 # cH_alcohol6
73 13 1 0.404 0.949442029 -14.1772156 12.7425766 # cH_alcohol1
74 13 2 -0.65 0.936469972 -14.1058226 11.7729158 # OH_alcohol2
75 13 3 0.246 1.44566798 -15.3252697 11.246644 # CH2_alcohol3
76 13 3 0.246 2.87085795 -15.5155811 11.7292204 # CH2_alcohol4
77 13 2 -0.65 3.668046 -14.4352798 11.259491 # OH_alcohol5
78 13 1 0.404 3.27665591 -13.6133852 11.6017714 # cH_alcohol6
79 14 1 0.404 16.1191998 14.3650932 14.4591389 # cH_alcohol1
80 14 2 -0.65 16.0871754 15.2777309 14.1251116 # OH_alcohol2
81 14 3 0.246 16.1509457 16.1477127 15.2486601 # CH2_alcohol3
82 14 3 0.246 14.956111 15.886137 16.1454391 # CH2_alcohol4
83 14 2 -0.65 13.7629166 16.1501198 15.4175587 # OH_alcohol5
84 14 1 0.404 13.7631874 15.5704899 14.6366091 # cH_alcohol6
85 15 1 0.404 9.63262081 -15.0916233 4.5140729 # cH_alcohol1
86 15 2 -0.65 9.50805664 -14.9882154 5.47287416 # OH_alcohol2
87 15 3 0.246 8.7759409 -16.1171989 5.93406582 # CH2_alcohol3
88 15 3 0.246 7.42736578 -16.1492767 5.24082804 # CH2_alcohol4
89 15 2 -0.65 6.71079922 -14.9639893 5.56460285 # OH_alcohol5
90 15 1 0.404 7.24961996 -14.2085009 5.27346182 # cH_alcohol6
91 16 1 0.404 -11.8669491 -1.93418002 -14.9101105 # cH_alcohol1
92 16 2 -0.65 -12.7418594 -2.32329202 -15.079319 # OH_alcohol2
93 16 3 0.246 -13.3344593 -1.59649897 -16.1488476 # CH2_alcohol3
94 16 3 0.246 -13.4882784 -0.145362005 -15.7355642 # CH2_alcohol4
95 16 2 -0.65 -14.3369589 -0.0747400001 -14.5962839 # OH_alcohol5
96 16 1 0.404 -13.928318 -0.609686971 -13.8943596 # cH_alcohol6
97 17 1 0.404 -13.8799038 5.49914312 -5.33825588 # cH_alcohol1
98 17 2 -0.65 -14.4512119 5.39802408 -4.55794191 # OH_alcohol2
99 17 3 0.246 -14.2587633 4.0819931 -4.05363989 # CH2_alcohol3
100 17 3 0.246 -14.6611519 3.08016205 -5.11885405 # CH2_alcohol4
101 17 2 -0.65 -16.0363312 3.26355195 -5.43263102 # OH_alcohol5
102 17 1 0.404 -16.1462593 4.18037081 -5.73793888 # cH_alcohol6
103 18 1 0.404 -8.55368233 -3.61047602 -11.4343557 # cH_alcohol1
104 18 2 -0.65 -7.63857222 -3.29423499 -11.3445005 # OH_alcohol2
105 18 3 0.246 -6.77692795 -4.39277792 -11.6166534 # CH2_alcohol3
106 18 3 0.246 -7.04261112 -5.49217319 -10.606205 # CH2_alcohol4
107 18 2 -0.65 -6.77092123 -4.99791622 -9.30041027 # OH_alcohol5
108 18 1 0.404 -7.34484482 -4.22631598 -9.15516186 # cH_alcohol6
109 19 1 0.404 -7.19931316 14.3204956 13.2309246 # cH_alcohol1
110 19 2 -0.65 -6.2395072 14.1646824 13.2297392 # OH_alcohol2
111 19 3 0.246 -5.5993619 15.4342852 13.1895132 # CH2_alcohol3
112 19 3 0.246 -6.00521278 16.1529598 11.9170933 # CH2_alcohol4
113 19 2 -0.65 -5.5873661 15.3835754 10.7960863 # OH_alcohol5
114 19 1 0.404 -6.00847578 14.5099144 10.8684483 # cH_alcohol6
115 20 1 0.404 -14.8426199 -3.9111259 11.7630119 # cH_alcohol1
116 20 2 -0.65 -14.8539543 -3.60327911 12.685297 # OH_alcohol2
117 20 3 0.246 -14.4666872 -2.23458695 12.6849527 # CH2_alcohol3
118 20 3 0.246 -13.0636654 -2.11748791 12.1209669 # CH2_alcohol4
119 20 2 -0.65 -12.1692829 -2.85565209 12.9446182 # OH_alcohol5
120 20 1 0.404 -12.4783392 -3.77769399 12.9578514 # cH_alcohol6
121 21 1 0.404 1.84006298 -10.5260277 -7.61396408 # cH_alcohol1
122 21 2 -0.65 2.18174696 -10.2940149 -6.73366404 # OH_alcohol2
123 21 3 0.246 2.23580503 -11.4903202 -5.96605206 # CH2_alcohol3
124 21 3 0.246 0.836335003 -12.0612421 -5.84038019 # CH2_alcohol4
125 21 2 -0.65 0.00763799995 -11.1162004 -5.17452383 # OH_alcohol5
126 21 1 0.404 0.0188190006 -10.2974329 -5.69926119 # cH_alcohol6
127 22 1 0.404 11.0733824 -13.3157415 1.14304304 # cH_alcohol1
128 22 2 -0.65 11.1376448 -13.2677641 2.11210203 # OH_alcohol2
129 22 3 0.246 11.0385609 -14.5948858 2.6143229 # CH2_alcohol3
130 22 3 0.246 9.69523335 -15.1755886 2.21618199 # CH2_alcohol4
131 22 2 -0.65 8.66006756 -14.3827209 2.78451204 # OH_alcohol5
132 22 1 0.404 8.77382374 -13.4746799 2.45530796 # cH_alcohol6
133 23 1 0.404 13.1415777 14.1812325 12.0892649 # cH_alcohol1
134 23 2 -0.65 13.4665174 14.8142967 12.7519493 # OH_alcohol2
135 23 3 0.246 13.4073296 16.1112118 12.1707382 # CH2_alcohol3
136 23 3 0.246 14.3005114 16.1455479 10.9454575 # CH2_alcohol4
137 23 2 -0.65 15.6394272 15.8709917 11.339323 # OH_alcohol5
138 23 1 0.404 15.6445971 14.9973984 11.7667093 # cH_alcohol6
139 24 1 0.404 -5.67944622 -11.7213039 1.82135606 # cH_alcohol1
140 24 2 -0.65 -5.04779196 -12.4598579 1.85389197 # OH_alcohol2
141 24 3 0.246 -3.99243402 -12.1612864 0.948149025 # CH2_alcohol3
142 24 3 0.246 -4.56276417 -12.0337086 -0.451389998 # CH2_alcohol4
143 24 2 -0.65 -5.16149616 -13.2692909 -0.822960973 # OH_alcohol5
144 24 1 0.404 -5.85191202 -13.4678345 -0.167401999 # cH_alcohol6
145 25 1 0.404 -6.73214912 14.0457239 -6.48123217 # cH_alcohol1
146 25 2 -0.65 -7.3334651 14.7647448 -6.73995113 # OH_alcohol2
147 25 3 0.246 -6.64757204 15.9931583 -6.53055382 # CH2_alcohol3
148 25 3 0.246 -6.29713392 16.1198254 -5.06037998 # CH2_alcohol4
149 25 2 -0.65 -7.49644279 16.1183777 -4.29561615 # OH_alcohol5
150 25 1 0.404 -7.96307611 15.2866373 -4.48618221 # cH_alcohol6
151 26 1 0.404 -13.496747 1.13380396 3.21424389 # cH_alcohol1
152 26 2 -0.65 -13.5878487 1.94379199 3.74445796 # OH_alcohol2
153 26 3 0.246 -14.7168083 1.77557695 4.59325123 # CH2_alcohol3
154 26 3 0.246 -15.9538603 1.57891905 3.73809505 # CH2_alcohol4
155 26 2 -0.65 -16.1462917 2.73224306 2.92814493 # OH_alcohol5
156 26 1 0.404 -15.3462763 2.84550905 2.38685203 # cH_alcohol6
157 27 1 0.404 -6.42279196 3.33345389 0.103536002 # cH_alcohol1
158 27 2 -0.65 -6.5192461 3.28254509 -0.862699986 # OH_alcohol2
159 27 3 0.246 -5.69011497 4.28967714 -1.42973101 # CH2_alcohol3
160 27 3 0.246 -6.15368605 5.64727592 -0.937503994 # CH2_alcohol4
161 27 2 -0.65 -7.4969101 5.85847521 -1.355057 # OH_alcohol5
162 27 1 0.404 -8.03418636 5.13674021 -0.985885978 # cH_alcohol6
163 28 1 0.404 -12.5950403 11.9697981 -13.6282301 # cH_alcohol1
164 28 2 -0.65 -11.6661491 11.9659662 -13.9157257 # OH_alcohol2
165 28 3 0.246 -11.6247072 12.4886227 -15.2379999 # CH2_alcohol3
166 28 3 0.246 -12.44837 11.5978785 -16.1481724 # CH2_alcohol4
167 28 2 -0.65 -11.8907194 10.2893581 -16.1455708 # OH_alcohol5
168 28 1 0.404 -11.8962116 9.97161388 -15.2264071 # cH_alcohol6
169 29 1 0.404 -8.59390926 -14.5880537 -15.5265455 # cH_alcohol1
170 29 2 -0.65 -9.11542225 -14.8113604 -14.7368202 # OH_alcohol2
171 29 3 0.246 -9.62655735 -16.1262722 -14.9185925 # CH2_alcohol3
172 29 3 0.246 -10.5177231 -16.1454811 -16.145668 # CH2_alcohol4
173 29 2 -0.65 -11.601799 -15.2465162 -15.9460449 # OH_alcohol5
174 29 1 0.404 -11.2240477 -14.3645964 -15.7867508 # cH_alcohol6
175 30 1 0.404 0.947429001 -9.85925007 -14.2115784 # cH_alcohol1
176 30 2 -0.65 1.37974703 -9.52133274 -15.0143366 # OH_alcohol2
177 30 3 0.246 0.872511029 -10.2614603 -16.1180668 # CH2_alcohol3
178 30 3 0.246 1.21266603 -11.7273521 -15.9290752 # CH2_alcohol4
179 30 2 -0.65 2.62671399 -11.8729954 -15.879447 # OH_alcohol5
180 30 1 0.404 2.95049095 -11.3282061 -15.1417303 # cH_alcohol6
181 31 1 0.404 -16.1517467 16.1249714 -14.7675228 # cH_alcohol1
182 31 2 -0.65 -15.3676825 15.8070145 -14.2883015 # OH_alcohol2
183 31 3 0.246 -14.3705378 15.4988928 -15.2547693 # CH2_alcohol3
184 31 3 0.246 -14.8902788 14.4081354 -16.1714916 # CH2_alcohol4
185 31 2 -0.65 -15.1672869 13.2460155 -15.3995113 # OH_alcohol5
186 31 1 0.404 -15.8217525 13.4935303 -14.7240381 # cH_alcohol6
187 32 1 0.404 -6.82029104 8.32097435 -4.77889109 # cH_alcohol1
188 32 2 -0.65 -7.01556206 7.58648205 -5.38543701 # OH_alcohol2
189 32 3 0.246 -5.786098 7.17638779 -5.97155619 # CH2_alcohol3
190 32 3 0.246 -5.19477606 8.33901405 -6.74544287 # CH2_alcohol4
191 32 2 -0.65 -6.09929991 8.71893597 -7.77534723 # OH_alcohol5
192 32 1 0.404 -6.94125891 8.95739746 -7.35097218 # cH_alcohol6
193 33 1 0.404 0.0701600015 9.72282124 10.0827246 # cH_alcohol1
194 33 2 -0.65 -0.741710007 10.0979462 10.4643736 # OH_alcohol2
195 33 3 0.246 -1.55772305 9.01231575 10.8872528 # CH2_alcohol3
196 33 3 0.246 -1.90320301 8.15524292 9.684618 # CH2_alcohol4
197 33 2 -0.65 -2.62417889 8.94301987 8.74503899 # OH_alcohol5
198 33 1 0.404 -2.05974698 9.69687176 8.50218773 # cH_alcohol6
199 34 1 0.404 15.0055513 -4.89057207 -1.70024705 # cH_alcohol1
200 34 2 -0.65 14.3440666 -4.20018816 -1.87720799 # OH_alcohol2
201 34 3 0.246 14.9484091 -3.23658299 -2.73133397 # CH2_alcohol3
202 34 3 0.246 16.1466446 -2.63174701 -2.02516794 # CH2_alcohol4
203 34 2 -0.65 15.7081041 -1.99009299 -0.833878994 # OH_alcohol5
204 34 1 0.404 15.266202 -2.66156697 -0.286431998 # cH_alcohol6
205 35 1 0.404 -1.43194497 5.68759108 5.70398188 # cH_alcohol1
206 35 2 -0.65 -1.64644504 5.99039984 4.80520296 # OH_alcohol2
207 35 3 0.246 -1.11742103 7.30249596 4.657444 # CH2_alcohol3
208 35 3 0.246 -1.76918101 8.21652603 5.67725801 # CH2_alcohol4
209 35 2 -0.65 -3.17158604 8.24921322 5.44188404 # OH_alcohol5
210 35 1 0.404 -3.50049305 7.33659983 5.51125002 # cH_alcohol6
211 36 1 0.404 13.9329767 -11.1506672 2.5693059 # cH_alcohol1
212 36 2 -0.65 13.6544304 -12.0427294 2.83790302 # OH_alcohol2
213 36 3 0.246 14.0162039 -12.2116756 4.20314121 # CH2_alcohol3
214 36 3 0.246 15.5213919 -12.0811729 4.33595514 # CH2_alcohol4
215 36 2 -0.65 16.1455803 -13.0956297 3.55847597 # OH_alcohol5
216 36 1 0.404 15.8519974 -12.9803791 2.6384871 # cH_alcohol6
217 37 1 0.404 6.80315208 -3.52938104 -0.152465999 # cH_alcohol1
218 37 2 -0.65 7.03880882 -2.68445706 0.267147988 # OH_alcohol2
219 37 3 0.246 8.06811047 -2.09029293 -0.514392018 # CH2_alcohol3
220 37 3 0.246 9.27303982 -3.01128101 -0.528201997 # CH2_alcohol4
221 37 2 -0.65 9.73967457 -3.18501711 0.804192007 # OH_alcohol5
222 37 1 0.404 9.00634575 -3.55608201 1.32418299 # cH_alcohol6
223 38 1 0.404 -9.88715363 6.00628901 5.63775921 # cH_alcohol1
224 38 2 -0.65 -10.8520594 5.90834379 5.56795406 # OH_alcohol2
225 38 3 0.246 -11.1869202 4.6116991 6.0474062 # CH2_alcohol3
226 38 3 0.246 -10.5006084 3.57186794 5.18254089 # CH2_alcohol4
227 38 2 -0.65 -10.9586573 3.70701694 3.84271598 # OH_alcohol5
228 38 1 0.404 -10.7517204 4.61220121 3.55345702 # cH_alcohol6
229 39 1 0.404 -16.0004025 1.41175497 -1.57978702 # cH_alcohol1
230 39 2 -0.65 -15.3604822 2.14016795 -1.50615394 # OH_alcohol2
231 39 3 0.246 -14.0630875 1.56356502 -1.41902697 # CH2_alcohol3
232 39 3 0.246 -13.9921017 0.689666986 -0.181479007 # CH2_alcohol4
233 39 2 -0.65 -14.2238436 1.49398899 0.96855098 # OH_alcohol5
234 39 1 0.404 -15.099122 1.90523398 0.865502 # cH_alcohol6
235 40 1 0.404 14.2851467 -4.77225208 -12.0777817 # cH_alcohol1
236 40 2 -0.65 15.0114479 -4.46471119 -12.6464767 # OH_alcohol2
237 40 3 0.246 16.1461506 -4.25276709 -11.8153172 # CH2_alcohol3
238 40 3 0.246 15.8137512 -3.18982506 -10.7857885 # CH2_alcohol4
239 40 2 -0.65 15.4937153 -1.97739899 -11.4572105 # OH_alcohol5
240 40 1 0.404 14.7409964 -2.15950799 -12.045516 # cH_alcohol6
241 41 1 0.404 9.43210697 -5.89774179 -8.06457901 # cH_alcohol1
242 41 2 -0.65 9.71508121 -6.76661491 -7.73217297 # OH_alcohol2
243 41 3 0.246 8.54539776 -7.55163002 -7.53497124 # CH2_alcohol3
244 41 3 0.246 7.66037893 -6.87153912 -6.50809193 # CH2_alcohol4
245 41 2 -0.65 8.36849022 -6.77161217 -5.27853823 # OH_alcohol5
246 41 1 0.404 9.18027401 -6.26410198 -5.44969177 # cH_alcohol6
247 42 1 0.404 12.0282106 -15.3395834 13.4509087 # cH_alcohol1
248 42 2 -0.65 12.6350985 -15.3765106 14.2097464 # OH_alcohol2
249 42 3 0.246 12.0048752 -16.1477261 15.2252951 # CH2_alcohol3
250 42 3 0.246 10.712388 -15.4670172 15.6331844 # CH2_alcohol4
251 42 2 -0.65 11.0105076 -14.1741762 16.1459141 # OH_alcohol5
252 42 1 0.404 11.4735088 -13.6823597 15.4462013 # cH_alcohol6
253 43 1 0.404 2.70587802 1.02115405 -5.7107172 # cH_alcohol1
254 43 2 -0.65 2.216187 0.183264002 -5.77114296 # OH_alcohol2
255 43 3 0.246 3.02534604 -0.73457402 -6.49649191 # CH2_alcohol3
256 43 3 0.246 3.27418804 -0.182963997 -7.88719893 # CH2_alcohol4
257 43 2 -0.65 2.02797294 -0.0297439992 -8.55553818 # OH_alcohol5
258 43 1 0.404 1.48165596 0.570957005 -8.02023506 # cH_alcohol6
259 44 1 0.404 -10.4460821 -5.83307505 1.21278 # cH_alcohol1
260 44 2 -0.65 -9.80524826 -5.58843708 0.523584008 # OH_alcohol2
261 44 3 0.246 -8.62518501 -5.13657093 1.17670405 # CH2_alcohol3
262 44 3 0.246 -8.96103573 -3.92220712 2.02097011 # CH2_alcohol4
263 44 2 -0.65 -9.45081329 -2.88945198 1.17436397 # OH_alcohol5
264 44 1 0.404 -10.2330866 -3.23695898 0.712693989 # cH_alcohol6
265 45 1 0.404 4.28992987 0.950948 14.2910528 # cH_alcohol1
266 45 2 -0.65 4.2621069 1.789258 13.7991486 # OH_alcohol2
267 45 3 0.246 5.28171778 2.62940001 14.3262644 # CH2_alcohol3
268 45 3 0.246 5.00192118 2.88534689 15.7947559 # CH2_alcohol4
269 45 2 -0.65 3.74564409 3.54044795 15.9205303 # OH_alcohol5
270 45 1 0.404 3.07386708 2.96286893 15.5193167 # cH_alcohol6
271 46 1 0.404 9.73090172 -2.16065907 -13.4725389 # cH_alcohol1
272 46 2 -0.65 10.1854477 -2.85216308 -13.9831438 # OH_alcohol2
273 46 3 0.246 10.3073359 -3.99419594 -13.1439781 # CH2_alcohol3
274 46 3 0.246 11.1334372 -3.62739396 -11.9260798 # CH2_alcohol4
275 46 2 -0.65 12.4283752 -3.21874309 -12.3495741 # OH_alcohol5
276 46 1 0.404 12.3138218 -2.46261907 -12.9504128 # cH_alcohol6
277 47 1 0.404 6.90637112 -8.58022213 -14.9706078 # cH_alcohol1
278 47 2 -0.65 7.69184208 -8.22444344 -14.521203 # OH_alcohol2
279 47 3 0.246 8.69791508 -8.02868176 -15.5075054 # CH2_alcohol3
280 47 3 0.246 9.0312252 -9.36340141 -16.1460152 # CH2_alcohol4
281 47 2 -0.65 9.52365398 -10.2464123 -15.1455097 # OH_alcohol5
282 47 1 0.404 8.83273602 -10.3324327 -14.4664783 # cH_alcohol6
283 48 1 0.404 5.21383286 -9.69613457 -11.7351351 # cH_alcohol1
284 48 2 -0.65 5.05841208 -9.55506039 -12.6845818 # OH_alcohol2
285 48 3 0.246 4.77529001 -10.822279 -13.2653532 # CH2_alcohol3
286 48 3 0.246 5.97118282 -11.7343893 -13.0700121 # CH2_alcohol4
287 48 2 -0.65 7.10060883 -11.1645288 -13.720293 # OH_alcohol5
288 48 1 0.404 7.24846888 -10.2854404 -13.3314581 # cH_alcohol6
289 49 1 0.404 14.0394173 -14.9846334 -3.18323207 # cH_alcohol1
290 49 2 -0.65 13.1299686 -14.8119535 -2.88558507 # OH_alcohol2
291 49 3 0.246 12.3469887 -15.9524469 -3.21651411 # CH2_alcohol3
292 49 3 0.246 12.367569 -16.147295 -4.72046709 # CH2_alcohol4
293 49 2 -0.65 11.8069859 -14.998826 -5.344944 # OH_alcohol5
294 49 1 0.404 12.3370047 -14.2303629 -5.07218409 # cH_alcohol6
295 50 1 0.404 -11.2659502 -13.8963194 10.5111084 # cH_alcohol1
296 50 2 -0.65 -12.1698332 -14.0822821 10.2046423 # OH_alcohol2
297 50 3 0.246 -12.3648806 -15.4895468 10.2743387 # CH2_alcohol3
298 50 3 0.246 -11.3625212 -16.1736565 9.36465168 # CH2_alcohol4
299 50 2 -0.65 -11.5765667 -15.738203 8.02757645 # OH_alcohol5
300 50 1 0.404 -11.4749079 -14.7710533 8.01582336 # cH_alcohol6
301 51 1 0.404 2.89772391 -15.5886679 14.0893316 # cH_alcohol1
302 51 2 -0.65 3.23601794 -15.3582411 14.9713573 # OH_alcohol2
303 51 3 0.246 2.54297209 -16.1610222 15.9192629 # CH2_alcohol3
304 51 3 0.246 1.06038499 -15.8512974 15.8400927 # CH2_alcohol4
305 51 2 -0.65 0.85570699 -14.4787283 16.1521339 # OH_alcohol5
306 51 1 0.404 1.36959696 -13.9546194 15.5141058 # cH_alcohol6
307 52 1 0.404 6.29979992 -8.37314034 12.9487638 # cH_alcohol1
308 52 2 -0.65 5.7702589 -8.87796497 12.30826 # OH_alcohol2
309 52 3 0.246 5.32758904 -10.0633478 12.9580336 # CH2_alcohol3
310 52 3 0.246 6.53595304 -10.8766632 13.3806877 # CH2_alcohol4
311 52 2 -0.65 7.28513288 -11.2299356 12.2243433 # OH_alcohol5
312 52 1 0.404 7.5421629 -10.4041109 11.7795935 # cH_alcohol6
313 53 1 0.404 -3.82985806 -15.4992313 13.5627823 # cH_alcohol1
314 53 2 -0.65 -4.16721296 -15.0531178 12.7673693 # OH_alcohol2
315 53 3 0.246 -3.93074703 -15.9143286 11.6602583 # CH2_alcohol3
316 53 3 0.246 -2.43828702 -16.1478081 11.5249329 # CH2_alcohol4
317 53 2 -0.65 -1.792714 -14.9016752 11.293438 # OH_alcohol5
318 53 1 0.404 -2.00157309 -14.3207531 12.0449429 # cH_alcohol6
319 54 1 0.404 11.8177567 16.1394176 15.5148029 # cH_alcohol1
320 54 2 -0.65 10.8976326 15.8314056 15.4514923 # OH_alcohol2
321 54 3 0.246 10.811059 14.5941849 16.1479702 # CH2_alcohol3
322 54 3 0.246 11.7361956 13.5893946 15.4885912 # CH2_alcohol4
323 54 2 -0.65 11.3260927 13.3960199 14.1403971 # OH_alcohol5
324 54 1 0.404 11.3580818 14.2618332 13.6985846 # cH_alcohol6
325 55 1 0.404 16.1460876 2.44359303 6.89330912 # cH_alcohol1
326 55 2 -0.65 15.2359028 2.16240692 7.08825922 # OH_alcohol2
327 55 3 0.246 15.1991911 1.74110901 8.44636631 # CH2_alcohol3
328 55 3 0.246 16.1484737 0.572238028 8.62766075 # CH2_alcohol4
329 55 2 -0.65 15.7277098 -0.500917017 7.79429197 # OH_alcohol5
330 55 1 0.404 15.7254076 -0.175197005 6.87791109 # cH_alcohol6
331 56 1 0.404 7.00634909 -0.0373510011 -10.9213161 # cH_alcohol1
332 56 2 -0.65 6.94868183 -0.616550982 -11.7002306 # OH_alcohol2
333 56 3 0.246 8.25463009 -1.11705005 -11.9596462 # CH2_alcohol3
334 56 3 0.246 9.18165302 0.0471610017 -12.2520533 # CH2_alcohol4
335 56 2 -0.65 8.70968056 0.738771021 -13.4018898 # OH_alcohol5
336 56 1 0.404 7.8035078 1.03644204 -13.2118998 # cH_alcohol6
337 57 1 0.404 -2.72654605 -3.50557399 6.65561199 # cH_alcohol1
338 57 2 -0.65 -2.79724312 -3.62375093 7.61818314 # OH_alcohol2
339 57 3 0.246 -2.52444696 -2.36669898 8.22539043 # CH2_alcohol3
340 57 3 0.246 -1.11602294 -1.93698704 7.86213684 # CH2_alcohol4
341 57 2 -0.65 -0.194786996 -2.90280604 8.35379314 # OH_alcohol5
342 57 1 0.404 -0.42701 -3.7580421 7.95317078 # cH_alcohol6
343 58 1 0.404 -8.7883749 -10.6126728 14.1272888 # cH_alcohol1
344 58 2 -0.65 -9.68423367 -10.8439474 13.8281946 # OH_alcohol2
345 58 3 0.246 -10.5994196 -10.3652668 14.8062515 # CH2_alcohol3
346 58 3 0.246 -10.3081713 -11.0443583 16.1307411 # CH2_alcohol4
347 58 2 -0.65 -10.4782305 -12.4484453 15.9796619 # OH_alcohol5
348 58 1 0.404 -9.86955547 -12.7425728 15.2804794 # cH_alcohol6
349 59 1 0.404 -7.06717777 2.99925208 3.05181098 # cH_alcohol1
350 59 2 -0.65 -7.56447506 3.46760702 3.74379802 # OH_alcohol2
351 59 3 0.246 -6.86839008 3.28375697 4.97056723 # CH2_alcohol3
352 59 3 0.246 -6.81273079 1.80230701 5.29067993 # CH2_alcohol4
353 59 2 -0.65 -8.13903236 1.30692899 5.42754698 # OH_alcohol5
354 59 1 0.404 -8.60275936 1.47918701 4.5902071 # cH_alcohol6
355 60 1 0.404 3.57318497 6.11434698 13.0940952 # cH_alcohol1
356 60 2 -0.65 2.78815603 6.34270906 13.6204853 # OH_alcohol2
357 60 3 0.246 1.97961903 5.17603397 13.7123175 # CH2_alcohol3
358 60 3 0.246 1.55869806 4.75468922 12.3174849 # CH2_alcohol4
359 60 2 -0.65 0.800948977 5.80253506 11.7249956 # OH_alcohol5
360 60 1 0.404 1.36286795 6.59616899 11.7093163 # cH_alcohol6
361 61 1 0.404 14.23983 -14.8593216 -5.23890305 # cH_alcohol1
362 61 2 -0.65 15.0509243 -14.3323135 -5.13942194 # OH_alcohol2
363 61 3 0.246 16.1460133 -15.238205 -5.08079481 # CH2_alcohol3
364 61 3 0.246 15.9726152 -16.1469669 -3.87898493 # CH2_alcohol4
365 61 2 -0.65 15.9573936 -15.3556366 -2.69713402 # OH_alcohol5
366 61 1 0.404 15.2248354 -14.7213383 -2.78004289 # cH_alcohol6
367 62 1 0.404 -1.83184195 -4.31744814 0.807452023 # cH_alcohol1
368 62 2 -0.65 -2.75359392 -4.61701584 0.885815024 # OH_alcohol2
369 62 3 0.246 -3.54566693 -3.791857 0.0402209982 # CH2_alcohol3
370 62 3 0.246 -3.43139005 -2.35275292 0.505173981 # CH2_alcohol4
371 62 2 -0.65 -3.91600895 -2.25609493 1.83896804 # OH_alcohol5
372 62 1 0.404 -3.38315892 -2.85709906 2.38734698 # cH_alcohol6
373 63 1 0.404 -2.22462702 13.2662401 -6.68773603 # cH_alcohol1
374 63 2 -0.65 -2.2870059 13.7436705 -7.53252983 # OH_alcohol2
375 63 3 0.246 -1.49555004 14.9201336 -7.41928577 # CH2_alcohol3
376 63 3 0.246 -2.04727888 15.7817802 -6.29972219 # CH2_alcohol4
377 63 2 -0.65 -3.385782 16.1477299 -6.612288 # OH_alcohol5
378 63 1 0.404 -3.89497304 15.326355 -6.72147894 # cH_alcohol6
379 64 1 0.404 15.5694571 -8.78665924 -10.3674631 # cH_alcohol1
380 64 2 -0.65 16.1454639 -8.46643162 -11.0824299 # OH_alcohol2
381 64 3 0.246 15.3162107 -8.16432285 -12.1979408 # CH2_alcohol3
382 64 3 0.246 14.6017742 -9.42711067 -12.6397667 # CH2_alcohol4
383 64 2 -0.65 15.5685568 -10.3965006 -13.0255365 # OH_alcohol5
384 64 1 0.404 16.1442757 -10.5559483 -12.2580891 # cH_alcohol6
385 65 1 0.404 -2.72620893 1.87959695 -14.2029228 # cH_alcohol1
386 65 2 -0.65 -3.09115601 1.38197601 -14.9543848 # OH_alcohol2
387 65 3 0.246 -2.68072391 2.0423851 -16.1454773 # CH2_alcohol3
388 65 3 0.246 -3.23588991 3.4537859 -16.1451149 # CH2_alcohol4
389 65 2 -0.65 -4.65658808 3.39365697 -16.1103325 # OH_alcohol5
390 65 1 0.404 -4.90845823 2.9053719 -15.3078413 # cH_alcohol6
391 66 1 0.404 -7.25551605 14.0873089 1.72289705 # cH_alcohol1
392 66 2 -0.65 -8.03119755 14.6630087 1.61157095 # OH_alcohol2
393 66 3 0.246 -7.60051394 16.0046349 1.80612099 # CH2_alcohol3
394 66 3 0.246 -7.0506959 16.1488285 3.21223998 # CH2_alcohol4
395 66 2 -0.65 -8.08064079 15.8489103 4.14629984 # OH_alcohol5
396 66 1 0.404 -8.38234425 14.9419308 3.96681094 # cH_alcohol6
397 67 1 0.404 11.5980062 7.129632 2.71851492 # cH_alcohol1
398 67 2 -0.65 12.3877897 6.80326319 3.18244696 # OH_alcohol2
399 67 3 0.246 13.5109692 7.05802488 2.34766507 # CH2_alcohol3
400 67 3 0.246 13.3360729 6.30884886 1.04060304 # CH2_alcohol4
401 67 2 -0.65 13.262126 4.91439915 1.31124902 # OH_alcohol5
402 67 1 0.404 12.5109968 4.773283 1.91270101 # cH_alcohol6
403 68 1 0.404 -12.0193653 8.7344017 -2.56167507 # cH_alcohol1
404 68 2 -0.65 -11.7356186 9.66424084 -2.54179907 # OH_alcohol2
405 68 3 0.246 -12.8025913 10.4489994 -3.06047297 # CH2_alcohol3
406 68 3 0.246 -13.0781736 10.0259275 -4.49062204 # CH2_alcohol4
407 68 2 -0.65 -11.911541 10.2483263 -5.27338314 # OH_alcohol5
408 68 1 0.404 -11.1902313 9.73133659 -4.8755312 # cH_alcohol6
409 69 1 0.404 -9.88314915 5.93416786 -11.1467896 # cH_alcohol1
410 69 2 -0.65 -10.3738756 6.45965195 -10.4921446 # OH_alcohol2
411 69 3 0.246 -9.6882391 7.695858 -10.3340511 # CH2_alcohol3
412 69 3 0.246 -8.28540897 7.42224693 -9.82663822 # CH2_alcohol4
413 69 2 -0.65 -8.36713505 6.76900578 -8.56576443 # OH_alcohol5
414 69 1 0.404 -8.87204075 5.94785023 -8.69470024 # cH_alcohol6
415 70 1 0.404 -1.04395103 -10.9159031 8.27394772 # cH_alcohol1
416 70 2 -0.65 -1.13348401 -11.1928673 9.20173168 # OH_alcohol2
417 70 3 0.246 -0.477095991 -12.4472256 9.33969116 # CH2_alcohol3
418 70 3 0.246 -1.15008998 -13.4601612 8.43343163 # CH2_alcohol4
419 70 2 -0.65 -2.51085305 -13.599802 8.82334423 # OH_alcohol5
420 70 1 0.404 -2.92515993 -12.722476 8.75625229 # cH_alcohol6
421 71 1 0.404 -15.2431211 2.18127704 -14.1488295 # cH_alcohol1
422 71 2 -0.65 -16.1457901 2.23683405 -14.5060549 # OH_alcohol2
423 71 3 0.246 -16.0392742 2.45914698 -15.9069567 # CH2_alcohol3
424 71 3 0.246 -15.310112 3.7673111 -16.1463184 # CH2_alcohol4
425 71 2 -0.65 -16.0552406 4.82788897 -15.5605173 # OH_alcohol5
426 71 1 0.404 -16.1455383 4.63203621 -14.6121807 # cH_alcohol6
427 72 1 0.404 11.9992561 9.84591579 -12.9391994 # cH_alcohol1
428 72 2 -0.65 12.391715 9.09213734 -12.4666529 # OH_alcohol2
429 72 3 0.246 11.416152 8.05782318 -12.4246149 # CH2_alcohol3
430 72 3 0.246 10.197216 8.55760002 -11.6731625 # CH2_alcohol4
431 72 2 -0.65 10.5772133 8.89538097 -10.3447371 # OH_alcohol5
432 72 1 0.404 11.2702351 9.57518864 -10.4033546 # cH_alcohol6
433 73 1 0.404 12.9063025 14.2041016 -14.9848976 # cH_alcohol1
434 73 2 -0.65 12.9718866 14.9667807 -14.385293 # OH_alcohol2
435 73 3 0.246 12.9163132 16.1440067 -15.1817513 # CH2_alcohol3
436 73 3 0.246 14.0875425 16.1452408 -16.1453285 # CH2_alcohol4
437 73 2 -0.65 15.3001652 16.1412392 -15.4018669 # OH_alcohol5
438 73 1 0.404 15.2949963 15.3478794 -14.8393669 # cH_alcohol6
439 74 1 0.404 4.98304605 15.0786123 -3.86044002 # cH_alcohol1
440 74 2 -0.65 5.63406086 14.4001551 -4.10819483 # OH_alcohol2
441 74 3 0.246 6.90127516 14.8238935 -3.620435 # CH2_alcohol3
442 74 3 0.246 7.2642231 16.1459789 -4.26899099 # CH2_alcohol4
443 74 2 -0.65 7.34254408 15.9657965 -5.67775202 # OH_alcohol5
444 74 1 0.404 6.4769392 15.6404028 -5.97891617 # cH_alcohol6
445 75 1 0.404 -1.49747598 8.48978233 -3.42050791 # cH_alcohol1
446 75 2 -0.65 -1.69429898 8.59993458 -2.47465706 # OH_alcohol2
447 75 3 0.246 -2.59387589 7.56350899 -2.10065603 # CH2_alcohol3
448 75 3 0.246 -3.86908293 7.699049 -2.91043401 # CH2_alcohol4
449 75 2 -0.65 -4.4656992 8.95926857 -2.62918711 # OH_alcohol5
450 75 1 0.404 -3.81692791 9.64680862 -2.85774589 # cH_alcohol6