LAMMPS data file
# Generated via moleculegraph
# Use if there are more then one bond style or dihedral style

3 atom types
8 bond types
2 angle types
2 dihedral types

3000 atoms
6500 bonds
2000 angles
1500 dihedrals

-18.13528438645168 18.13528438645168 xlo xhi
-18.13528438645168 18.13528438645168 ylo yhi
-18.13528438645168 18.13528438645168 zlo zhi

Masses

1 1.008 # H
2 15.999 # OH_alcohol
3 14.027 # CH2_alcohol

# Elements

Bond Coeffs

1 harmonic 200.0 0.97 # OH_alcohol cH_alcohol
2 harmonic 200.0 1.42 # CH2_alcohol OH_alcohol
3 table ../bonded_interactions.table [special][CH2_alcohol][cH_alcohol] # cH_alcohol CH2_alcohol
4 table ../bonded_interactions.table [special][OH_alcohol][cH_alcohol] # cH_alcohol OH_alcohol
5 table ../bonded_interactions.table [special][cH_alcohol][cH_alcohol] # cH_alcohol cH_alcohol
6 table ../bonded_interactions.table [special][CH2_alcohol][OH_alcohol] # OH_alcohol CH2_alcohol
7 table ../bonded_interactions.table [special][OH_alcohol][OH_alcohol] # OH_alcohol OH_alcohol
8 table ../bonded_interactions.table [special][CH2_alcohol][CH2_alcohol] # CH2_alcohol CH2_alcohol

Angle Coeffs

1 45.6354 107.4 # CH2_alcohol OH_alcohol cH_alcohol
2 61.8104 113.5 # CH2_alcohol CH2_alcohol OH_alcohol

Dihedral Coeffs

1 opls 0.3257 0.1465 1.2068 0.0 # CH2_alcohol CH2_alcohol OH_alcohol cH_alcohol
2 nharmonic 8 3.3966 -7.8358 1.8155 6.6448 -7.0705 -0.0781 5.4748 0.2415 # OH_alcohol CH2_alcohol CH2_alcohol OH_alcohol

Atoms

1 1 1 0.404 12.3274164 15.4241438 9.53486347 # cH_alcohol1
2 1 2 -0.65 12.5835667 16.3118687 9.23181534 # OH_alcohol2
3 1 3 0.246 12.5382605 16.3089447 7.81011391 # CH2_alcohol3
4 1 3 0.246 13.5238342 15.2823133 7.28576994 # CH2_alcohol4
5 1 2 -0.65 14.8340273 15.6375694 7.71049881 # OH_alcohol5
6 1 1 0.404 14.8271446 15.6693201 8.68250561 # cH_alcohol6
7 2 1 0.404 6.95303106 15.346035 -10.710372 # cH_alcohol1
8 2 2 -0.65 6.18854713 14.9760466 -10.2368946 # OH_alcohol2
9 2 3 0.246 5.71694708 15.973402 -9.33902454 # CH2_alcohol3
10 2 3 0.246 6.81818104 16.311758 -8.35258675 # CH2_alcohol4
11 2 2 -0.65 7.15681505 15.14291 -7.61615705 # OH_alcohol5
12 2 1 0.404 7.43884087 14.4665899 -8.25561428 # cH_alcohol6
13 3 1 0.404 -2.9868381 12.8573456 15.4194498 # cH_alcohol1
14 3 2 -0.65 -2.94384789 13.3876724 14.6055632 # OH_alcohol2
15 3 3 0.246 -3.38624501 12.564002 13.5335798 # CH2_alcohol3
16 3 3 0.246 -2.4631331 11.3663492 13.4162989 # CH2_alcohol4
17 3 2 -0.65 -1.14412606 11.8222151 13.1413221 # OH_alcohol5
18 3 1 0.404 -0.881524026 12.4118128 13.8688288 # cH_alcohol6
19 4 1 0.404 -1.29488802 11.1686497 15.3965931 # cH_alcohol1
20 4 2 -0.65 -0.976289988 11.1058664 16.3131409 # OH_alcohol2
21 4 3 0.246 0.405232996 11.4445162 16.3106899 # CH2_alcohol3
22 4 3 0.246 1.15509999 10.4573917 15.4368773 # CH2_alcohol4
23 4 2 -0.65 0.995894015 9.14932346 15.9724293 # OH_alcohol5
24 4 1 0.404 0.0425859988 8.95855427 15.9981823 # cH_alcohol6
25 5 1 0.404 -4.4019742 -6.40309381 0.780239999 # cH_alcohol1
26 5 2 -0.65 -4.45726013 -6.39445877 1.751001 # OH_alcohol2
27 5 3 0.246 -5.77034092 -6.80784607 2.10908699 # CH2_alcohol3
28 5 3 0.246 -6.77285814 -5.82916689 1.52821898 # CH2_alcohol4
29 5 2 -0.65 -6.52646923 -4.53675604 2.06874895 # OH_alcohol5
30 5 1 0.404 -5.61195421 -4.29527617 1.842466 # cH_alcohol6
31 6 1 0.404 -1.508762 5.3007021 -0.240173995 # cH_alcohol1
32 6 2 -0.65 -2.1054759 6.05895376 -0.360563993 # OH_alcohol2
33 6 3 0.246 -1.39272296 7.22971392 0.0197000001 # CH2_alcohol3
34 6 3 0.246 -0.995088995 7.11487818 1.47879601 # CH2_alcohol4
35 6 2 -0.65 -2.17013311 7.00499916 2.27277493 # OH_alcohol5
36 6 1 0.404 -2.65645289 6.2201438 1.96724606 # cH_alcohol6
37 7 1 0.404 3.19273901 0.407182992 -0.667443991 # cH_alcohol1
38 7 2 -0.65 3.60024595 0.702992976 0.164387003 # OH_alcohol2
39 7 3 0.246 4.23844814 1.94843805 -0.0902879983 # CH2_alcohol3
40 7 3 0.246 5.30969381 1.74889302 -1.14521599 # CH2_alcohol4
41 7 2 -0.65 6.27254391 0.821534991 -0.659280002 # OH_alcohol5
42 7 1 0.404 5.8042531 -0.00666899979 -0.457697988 # cH_alcohol6
43 8 1 0.404 9.73208523 1.16762304 -11.518362 # cH_alcohol1
44 8 2 -0.65 9.48658085 0.698418975 -10.7028351 # OH_alcohol2
45 8 3 0.246 8.18857098 1.14261794 -10.3271341 # CH2_alcohol3
46 8 3 0.246 8.23260593 2.63626695 -10.0676374 # CH2_alcohol4
47 8 2 -0.65 9.1409893 2.89599895 -9.00434685 # OH_alcohol5
48 8 1 0.404 10.0095167 2.54917312 -9.27122593 # cH_alcohol6
49 9 1 0.404 9.02987289 -1.30925798 3.06509399 # cH_alcohol1
50 9 2 -0.65 8.63732624 -2.188627 2.93046594 # OH_alcohol2
51 9 3 0.246 9.55360031 -2.95289302 2.15610504 # CH2_alcohol3
52 9 3 0.246 9.75889206 -2.27093196 0.817058027 # CH2_alcohol4
53 9 2 -0.65 8.51280403 -2.2040801 0.134414002 # OH_alcohol5
54 9 1 0.404 7.89564419 -1.71043503 0.70122999 # cH_alcohol6
55 10 1 0.404 10.0961037 14.3945045 3.33190489 # cH_alcohol1
56 10 2 -0.65 9.29252815 14.9388657 3.273211 # OH_alcohol2
57 10 3 0.246 9.65717888 16.2767143 3.59020996 # CH2_alcohol3
58 10 3 0.246 10.2045183 16.3186016 5.00404501 # CH2_alcohol4
59 10 2 -0.65 9.19417477 15.8837957 5.90590715 # OH_alcohol5
60 10 1 0.404 8.93694401 14.9832392 5.64383316 # cH_alcohol6
61 11 1 0.404 -14.2802229 4.12620401 -2.30862689 # cH_alcohol1
62 11 2 -0.65 -14.7819042 4.46882915 -1.54939604 # OH_alcohol2
63 11 3 0.246 -16.1528416 4.51232481 -1.926139 # CH2_alcohol3
64 11 3 0.246 -16.3110695 5.44617081 -3.11068892 # CH2_alcohol4
65 11 2 -0.65 -15.8890314 6.75086403 -2.73271203 # OH_alcohol5
66 11 1 0.404 -14.9625168 6.68576288 -2.44429111 # cH_alcohol6
67 12 1 0.404 6.48366594 -12.9470844 -14.7433977 # cH_alcohol1
68 12 2 -0.65 5.57350397 -12.7312098 -15.0089359 # OH_alcohol2
69 12 3 0.246 5.63060093 -12.1628447 -16.3116245 # CH2_alcohol3
70 12 3 0.246 6.46591902 -10.8978634 -16.2633762 # CH2_alcohol4
71 12 2 -0.65 5.85307884 -9.97060776 -15.3757772 # OH_alcohol5
72 12 1 0.404 5.79210186 -10.3976231 -14.5041161 # cH_alcohol6
73 13 1 0.404 1.24231696 -6.88444614 -8.16859341 # cH_alcohol1
74 13 2 -0.65 0.652433991 -6.77535677 -7.40331793 # OH_alcohol2
75 13 3 0.246 0.757055998 -7.95173693 -6.61054993 # CH2_alcohol3
76 13 3 0.246 0.314204991 -9.14511776 -7.43516207 # CH2_alcohol4
77 13 2 -0.65 -1.04186404 -8.96307087 -7.82393408 # OH_alcohol5
78 13 1 0.404 -1.09145701 -8.1344471 -8.33066559 # cH_alcohol6
79 14 1 0.404 6.73988485 13.2529736 -16.1418095 # cH_alcohol1
80 14 2 -0.65 7.57194901 13.3685207 -15.6520891 # OH_alcohol2
81 14 3 0.246 8.56852436 12.5980406 -16.312767 # CH2_alcohol3
82 14 3 0.246 8.15884686 11.1378889 -16.2931957 # CH2_alcohol4
83 14 2 -0.65 8.05201817 10.7039089 -14.9428406 # OH_alcohol5
84 14 1 0.404 7.39362907 11.2705173 -14.5054264 # cH_alcohol6
85 15 1 0.404 -1.55697501 -8.37882614 14.3393936 # cH_alcohol1
86 15 2 -0.65 -2.04675889 -7.58690691 14.0592442 # OH_alcohol2
87 15 3 0.246 -2.09419894 -6.69772816 15.1684799 # CH2_alcohol3
88 15 3 0.246 -2.82235503 -7.37418985 16.3141022 # CH2_alcohol4
89 15 2 -0.65 -4.14947605 -7.68053913 15.9040928 # OH_alcohol5
90 15 1 0.404 -4.08794498 -8.2572546 15.1234102 # cH_alcohol6
91 16 1 0.404 5.05589485 -13.2050476 0.179321006 # cH_alcohol1
92 16 2 -0.65 5.86018896 -12.6771584 0.320569992 # OH_alcohol2
93 16 3 0.246 6.05213404 -11.871007 -0.83553201 # CH2_alcohol3
94 16 3 0.246 6.23352909 -12.7716837 -2.042238 # CH2_alcohol4
95 16 2 -0.65 7.38279819 -13.5861902 -1.84483397 # OH_alcohol5
96 16 1 0.404 7.24170399 -14.0973177 -1.02954698 # cH_alcohol6
97 17 1 0.404 -3.72082996 -16.1578217 3.02119303 # cH_alcohol1
98 17 2 -0.65 -4.02794313 -16.2421627 3.93992901 # OH_alcohol2
99 17 3 0.246 -3.93118095 -14.95786 4.54366779 # CH2_alcohol3
100 17 3 0.246 -2.48221588 -14.5101871 4.52488518 # CH2_alcohol4
101 17 2 -0.65 -1.70064104 -15.4363461 5.26958418 # OH_alcohol5
102 17 1 0.404 -1.81473696 -16.3107128 4.85931921 # cH_alcohol6
103 18 1 0.404 -6.88510084 -14.4583797 7.3198638 # cH_alcohol1
104 18 2 -0.65 -6.51110506 -14.9405746 6.56281519 # OH_alcohol2
105 18 3 0.246 -6.31077909 -16.2886486 6.97007418 # CH2_alcohol3
106 18 3 0.246 -5.33397484 -16.3151646 8.12999535 # CH2_alcohol4
107 18 2 -0.65 -4.09265089 -15.7666655 7.70400381 # OH_alcohol5
108 18 1 0.404 -4.26442814 -14.8602982 7.39603376 # cH_alcohol6
109 19 1 0.404 -7.28235722 5.77552891 -14.0891933 # cH_alcohol1
110 19 2 -0.65 -8.00633144 5.17137814 -13.8517675 # OH_alcohol2
111 19 3 0.246 -7.90884209 4.03231382 -14.6981268 # CH2_alcohol3
112 19 3 0.246 -8.05985832 4.47377682 -16.1412373 # CH2_alcohol4
113 19 2 -0.65 -9.33806419 5.07409191 -16.3115807 # OH_alcohol5
114 19 1 0.404 -9.39227104 5.82488823 -15.6957722 # cH_alcohol6
115 20 1 0.404 14.8893299 -13.4688787 -12.2849407 # cH_alcohol1
116 20 2 -0.65 14.341629 -13.1550007 -11.5453377 # OH_alcohol2
117 20 3 0.246 14.863698 -11.8992853 -11.1283073 # CH2_alcohol3
118 20 3 0.246 16.2951946 -12.0880947 -10.6641579 # CH2_alcohol4
119 20 2 -0.65 16.3112373 -12.9891977 -9.5637207 # OH_alcohol5
120 20 1 0.404 15.9151545 -13.8247948 -9.86496639 # cH_alcohol6
121 21 1 0.404 1.87926102 -5.33917618 -15.5824318 # cH_alcohol1
122 21 2 -0.65 0.977183998 -5.15594816 -15.2690763 # OH_alcohol2
123 21 3 0.246 0.357585996 -4.30157089 -16.2227192 # CH2_alcohol3
124 21 3 0.246 1.14363396 -3.00758791 -16.3121624 # CH2_alcohol4
125 21 2 -0.65 1.13582695 -2.37096906 -15.0402098 # OH_alcohol5
126 21 1 0.404 1.52916706 -2.99007201 -14.4015789 # cH_alcohol6
127 22 1 0.404 -1.79785299 12.3058281 7.52369213 # cH_alcohol1
128 22 2 -0.65 -2.74658108 12.5187635 7.51474285 # OH_alcohol2
129 22 3 0.246 -3.09390998 12.9824991 8.81382275 # CH2_alcohol3
130 22 3 0.246 -2.82354689 11.8812466 9.82100201 # CH2_alcohol4
131 22 2 -0.65 -3.62469506 10.7509022 9.49899101 # OH_alcohol5
132 22 1 0.404 -3.39468694 10.4784088 8.59417152 # cH_alcohol6
133 23 1 0.404 7.79907608 -9.53495979 14.6149178 # cH_alcohol1
134 23 2 -0.65 7.95105124 -9.31885242 15.5507107 # OH_alcohol2
135 23 3 0.246 7.13590193 -10.1868639 16.3287754 # CH2_alcohol3
136 23 3 0.246 5.68049097 -9.94754028 15.9755526 # CH2_alcohol4
137 23 2 -0.65 5.34572506 -8.59823704 16.2764149 # OH_alcohol5
138 23 1 0.404 5.94176006 -8.02787209 15.7613621 # cH_alcohol6
139 24 1 0.404 12.7675438 -7.37901402 4.15837193 # cH_alcohol1
140 24 2 -0.65 12.5017214 -6.49684 4.46920395 # OH_alcohol2
141 24 3 0.246 12.5685968 -5.61254215 3.35707092 # CH2_alcohol3
142 24 3 0.246 13.9954386 -5.56887293 2.84474492 # CH2_alcohol4
143 24 2 -0.65 14.8449011 -5.08491802 3.87789989 # OH_alcohol5
144 24 1 0.404 14.7512655 -5.68478918 4.63766384 # cH_alcohol6
145 25 1 0.404 2.183007 11.9691839 -15.7987318 # cH_alcohol1
146 25 2 -0.65 2.66859508 11.7989779 -14.9736624 # OH_alcohol2
147 25 3 0.246 4.04901314 12.0209541 -15.2353268 # CH2_alcohol3
148 25 3 0.246 4.50991583 11.0567675 -16.311512 # CH2_alcohol4
149 25 2 -0.65 4.33089209 9.72394371 -15.8481102 # OH_alcohol5
150 25 1 0.404 3.38735104 9.61122704 -15.6410408 # cH_alcohol6
151 26 1 0.404 4.8156271 -9.42302132 7.87844896 # cH_alcohol1
152 26 2 -0.65 4.11730719 -9.7054224 8.49335194 # OH_alcohol2
153 26 3 0.246 4.50153303 -10.9661961 9.02824974 # CH2_alcohol3
154 26 3 0.246 4.62508917 -11.9672995 7.89564705 # CH2_alcohol4
155 26 2 -0.65 3.36336899 -12.0980082 7.2520752 # OH_alcohol5
156 26 1 0.404 3.10736704 -11.2167721 6.92998981 # cH_alcohol6
157 27 1 0.404 -3.85547209 14.3595858 6.54523706 # cH_alcohol1
158 27 2 -0.65 -3.273458 15.0894098 6.27298212 # OH_alcohol2
159 27 3 0.246 -3.97550297 16.3052826 6.50119781 # CH2_alcohol3
160 27 3 0.246 -5.23775005 16.3131294 5.66040421 # CH2_alcohol4
161 27 2 -0.65 -4.88043499 16.2310963 4.28606701 # OH_alcohol5
162 27 1 0.404 -4.37028217 15.4119043 4.16555882 # cH_alcohol6
163 28 1 0.404 14.0053854 2.17462492 -14.7049608 # cH_alcohol1
164 28 2 -0.65 13.0406704 2.15922189 -14.5841494 # OH_alcohol2
165 28 3 0.246 12.4462919 2.43600798 -15.8464489 # CH2_alcohol3
166 28 3 0.246 12.8847303 3.81237793 -16.3086605 # CH2_alcohol4
167 28 2 -0.65 12.446249 4.78080988 -15.3636312 # OH_alcohol5
168 28 1 0.404 12.8356209 4.5466361 -14.5037451 # cH_alcohol6
169 29 1 0.404 -13.664258 -3.48663592 -14.2223787 # cH_alcohol1
170 29 2 -0.65 -13.6479158 -3.67722797 -13.2690086 # OH_alcohol2
171 29 3 0.246 -14.7428141 -4.53991079 -12.9856853 # CH2_alcohol3
172 29 3 0.246 -16.0355206 -3.83367705 -13.3468037 # CH2_alcohol4
173 29 2 -0.65 -16.1550179 -2.65400791 -12.5611162 # OH_alcohol5
174 29 1 0.404 -15.3766289 -2.10073495 -12.7451067 # cH_alcohol6
175 30 1 0.404 -11.7802277 9.32958698 7.88531113 # cH_alcohol1
176 30 2 -0.65 -11.0258951 8.74664783 8.07680798 # OH_alcohol2
177 30 3 0.246 -10.6172657 8.15717983 6.84845686 # CH2_alcohol3
178 30 3 0.246 -11.7658148 7.3432498 6.28399611 # CH2_alcohol4
179 30 2 -0.65 -12.1028042 6.31429005 7.20643091 # OH_alcohol5
180 30 1 0.404 -12.3409424 6.74215317 8.04671478 # cH_alcohol6
181 31 1 0.404 -3.93539596 13.21558 -5.29809904 # cH_alcohol1
182 31 2 -0.65 -4.0296092 12.8487492 -4.40251684 # OH_alcohol2
183 31 3 0.246 -3.37031698 13.7340155 -3.505337 # CH2_alcohol3
184 31 3 0.246 -1.90201294 13.8123169 -3.87711 # CH2_alcohol4
185 31 2 -0.65 -1.32485795 12.5172338 -3.76370811 # OH_alcohol5
186 31 1 0.404 -1.81755304 11.9251509 -4.35746098 # cH_alcohol6
187 32 1 0.404 -6.47976494 14.7218809 -2.49626589 # cH_alcohol1
188 32 2 -0.65 -6.37355423 15.0158691 -3.41702509 # OH_alcohol2
189 32 3 0.246 -6.95243883 16.3108578 -3.5228219 # CH2_alcohol3
190 32 3 0.246 -8.42673492 16.2235012 -3.177737 # CH2_alcohol4
191 32 2 -0.65 -9.06777859 15.348815 -4.09816885 # OH_alcohol5
192 32 1 0.404 -8.62874508 14.4834814 -4.03259993 # cH_alcohol6
193 33 1 0.404 3.12884998 1.01847398 -3.37890196 # cH_alcohol1
194 33 2 -0.65 3.83238196 0.599726975 -3.90349793 # OH_alcohol2
195 33 3 0.246 3.50110793 0.768257022 -5.27650595 # CH2_alcohol3
196 33 3 0.246 2.17638206 0.0836900026 -5.553514 # CH2_alcohol4
197 33 2 -0.65 2.30329704 -1.30452597 -5.27075005 # OH_alcohol5
198 33 1 0.404 2.56674409 -1.389557 -4.33843088 # cH_alcohol6
199 34 1 0.404 -7.77242422 -14.9673548 -13.1745386 # cH_alcohol1
200 34 2 -0.65 -8.56000233 -15.0721321 -13.7351198 # OH_alcohol2
201 34 3 0.246 -8.43642807 -16.312624 -14.420105 # CH2_alcohol3
202 34 3 0.246 -7.19075108 -16.2785244 -15.2846212 # CH2_alcohol4
203 34 2 -0.65 -7.31546402 -15.2295246 -16.2371197 # OH_alcohol5
204 34 1 0.404 -7.43651104 -14.4002047 -15.7437363 # cH_alcohol6
205 35 1 0.404 -15.2487535 -5.91400909 -7.47749519 # cH_alcohol1
206 35 2 -0.65 -15.3609123 -6.52055502 -8.22917938 # OH_alcohol2
207 35 3 0.246 -16.3135891 -7.50517988 -7.84679699 # CH2_alcohol3
208 35 3 0.246 -15.7840376 -8.26622391 -6.64652681 # CH2_alcohol4
209 35 2 -0.65 -14.5665493 -8.90865517 -7.00458908 # OH_alcohol5
210 35 1 0.404 -13.9473782 -8.21819115 -7.29740191 # cH_alcohol6
211 36 1 0.404 -1.59085202 -14.1234598 2.2386601 # cH_alcohol1
212 36 2 -0.65 -1.64899898 -14.1378889 1.26813495 # OH_alcohol2
213 36 3 0.246 -0.995800972 -12.9714193 0.782362998 # CH2_alcohol3
214 36 3 0.246 -1.70680797 -11.745203 1.32192695 # CH2_alcohol4
215 36 2 -0.65 -3.05365896 -11.7508974 0.864580989 # OH_alcohol5
216 36 1 0.404 -3.4647181 -12.5747986 1.17774296 # cH_alcohol6
217 37 1 0.404 -10.4896832 -4.76419783 14.3067236 # cH_alcohol1
218 37 2 -0.65 -9.87749863 -5.21269989 14.9146576 # OH_alcohol2
219 37 3 0.246 -10.0626154 -4.64460993 16.2055111 # CH2_alcohol3
220 37 3 0.246 -9.73626423 -3.16466308 16.1462345 # CH2_alcohol4
221 37 2 -0.65 -8.37793255 -3.00422597 15.7558479 # OH_alcohol5
222 37 1 0.404 -8.27051163 -3.43358994 14.8898449 # cH_alcohol6
223 38 1 0.404 14.5392075 12.9020252 -4.84404707 # cH_alcohol1
224 38 2 -0.65 14.3246489 13.1050882 -5.77045822 # OH_alcohol2
225 38 3 0.246 15.5529842 13.2695446 -6.46862984 # CH2_alcohol3
226 38 3 0.246 16.3209133 14.4238653 -5.85373688 # CH2_alcohol4
227 38 2 -0.65 15.5501308 15.6127996 -5.9783659 # OH_alcohol5
228 38 1 0.404 14.7027693 15.4599981 -5.52616882 # cH_alcohol6
229 39 1 0.404 -0.0462069996 -3.10672688 -0.348403007 # cH_alcohol1
230 39 2 -0.65 -0.438459992 -2.27782893 -0.671781003 # OH_alcohol2
231 39 3 0.246 -1.42660403 -1.87574303 0.269064993 # CH2_alcohol3
232 39 3 0.246 -2.49360394 -2.95011806 0.355639011 # CH2_alcohol4
233 39 2 -0.65 -3.10049105 -3.10544395 -0.92137599 # OH_alcohol5
234 39 1 0.404 -2.39840293 -3.34243202 -1.55126798 # cH_alcohol6
235 40 1 0.404 13.3304367 9.35744667 5.50930882 # cH_alcohol1
236 40 2 -0.65 13.9295464 9.54340172 6.25227404 # OH_alcohol2
237 40 3 0.246 13.4127312 8.87561893 7.39694118 # CH2_alcohol3
238 40 3 0.246 12.0297537 9.41750908 7.70352221 # CH2_alcohol4
239 40 2 -0.65 12.1273642 10.8094826 7.97936201 # OH_alcohol5
240 40 1 0.404 12.5178032 11.2353468 7.19702482 # cH_alcohol6
241 41 1 0.404 -15.4987946 4.45895386 -13.6735268 # cH_alcohol1
242 41 2 -0.65 -16.0026722 4.03197193 -12.9598732 # OH_alcohol2
243 41 3 0.246 -16.3116035 5.03151703 -11.9961481 # CH2_alcohol3
244 41 3 0.246 -15.0196075 5.60192204 -11.4432898 # CH2_alcohol4
245 41 2 -0.65 -14.2833033 4.55947495 -10.8153057 # OH_alcohol5
246 41 1 0.404 -14.1189127 3.87384295 -11.4851847 # cH_alcohol6
247 42 1 0.404 -13.1844416 -1.77143896 9.41139221 # cH_alcohol1
248 42 2 -0.65 -13.8759642 -1.98222899 10.0616789 # OH_alcohol2
249 42 3 0.246 -14.3527308 -3.29053593 9.77129745 # CH2_alcohol3
250 42 3 0.246 -14.9403315 -3.30403996 8.37315273 # CH2_alcohol4
251 42 2 -0.65 -16.02705 -2.38798189 8.31758976 # OH_alcohol5
252 42 1 0.404 -15.6818132 -1.510782 8.55671978 # cH_alcohol6
253 43 1 0.404 5.64160919 -12.7490129 12.453846 # cH_alcohol1
254 43 2 -0.65 6.03126287 -12.2044888 13.1589489 # OH_alcohol2
255 43 3 0.246 6.38100386 -13.0745707 14.2284985 # CH2_alcohol3
256 43 3 0.246 5.12764406 -13.758399 14.7400942 # CH2_alcohol4
257 43 2 -0.65 4.22249985 -12.7708912 15.2183714 # OH_alcohol5
258 43 1 0.404 4.03031778 -12.1687117 14.47925 # cH_alcohol6
259 44 1 0.404 9.35482025 -4.09111023 14.4232769 # cH_alcohol1
260 44 2 -0.65 10.1682663 -3.70180106 14.0596123 # OH_alcohol2
261 44 3 0.246 11.2249651 -3.99252105 14.9663439 # CH2_alcohol3
262 44 3 0.246 10.9105062 -3.36424398 16.3104591 # CH2_alcohol4
263 44 2 -0.65 10.8066044 -1.95464694 16.1509342 # OH_alcohol5
264 44 1 0.404 10.1047421 -1.78564894 15.4992571 # cH_alcohol6
265 45 1 0.404 -16.0168114 15.4081459 5.15990496 # cH_alcohol1
266 45 2 -0.65 -16.313633 14.9693594 5.97530079 # OH_alcohol2
267 45 3 0.246 -16.1890774 15.9080439 7.03673983 # CH2_alcohol3
268 45 3 0.246 -14.7335949 16.3127346 7.17113018 # CH2_alcohol4
269 45 2 -0.65 -13.9573917 15.1598654 7.47379684 # OH_alcohol5
270 45 1 0.404 -14.0903912 14.5209513 6.75271893 # cH_alcohol6
271 46 1 0.404 -1.52547598 -6.24485111 -11.6075392 # cH_alcohol1
272 46 2 -0.65 -1.42910695 -6.43322277 -10.6584673 # OH_alcohol2
273 46 3 0.246 -0.276665986 -7.25158596 -10.4989166 # CH2_alcohol3
274 46 3 0.246 -0.479748011 -8.54639435 -11.2621298 # CH2_alcohol4
275 46 2 -0.65 -1.61157894 -9.22517586 -10.7316399 # OH_alcohol5
276 46 1 0.404 -2.37590408 -8.63009167 -10.8184481 # cH_alcohol6
277 47 1 0.404 14.4793787 15.6898966 -13.4582596 # cH_alcohol1
278 47 2 -0.65 15.1075048 14.9608431 -13.5977058 # OH_alcohol2
279 47 3 0.246 16.3252602 15.5279846 -14.0653782 # CH2_alcohol3
280 47 3 0.246 16.0665054 16.2419853 -15.3782043 # CH2_alcohol4
281 47 2 -0.65 15.592885 15.3002367 -16.3331909 # OH_alcohol5
282 47 1 0.404 14.7827444 14.9010372 -15.9724083 # cH_alcohol6
283 48 1 0.404 16.2388 10.8676987 12.4134731 # cH_alcohol1
284 48 2 -0.65 16.2163105 11.8397732 12.404911 # OH_alcohol2
285 48 3 0.246 16.312891 12.2824936 13.753231 # CH2_alcohol3
286 48 3 0.246 15.1288443 11.7476168 14.5356636 # CH2_alcohol4
287 48 2 -0.65 13.9283323 12.2520657 13.9633799 # OH_alcohol5
288 48 1 0.404 13.9061956 11.9675207 13.0336514 # cH_alcohol6
289 49 1 0.404 -9.35499859 13.7060537 16.2439194 # cH_alcohol1
290 49 2 -0.65 -9.69150639 12.7939835 16.2638741 # OH_alcohol2
291 49 3 0.246 -8.61062336 11.9311142 15.9315434 # CH2_alcohol3
292 49 3 0.246 -8.11970139 12.2676821 14.5365591 # CH2_alcohol4
293 49 2 -0.65 -9.1800518 12.0660162 13.6101723 # OH_alcohol5
294 49 1 0.404 -9.91794968 12.6382036 13.8821278 # cH_alcohol6
295 50 1 0.404 15.4899054 -2.22778296 -6.18657017 # cH_alcohol1
296 50 2 -0.65 16.2719612 -2.65187192 -5.79408503 # OH_alcohol2
297 50 3 0.246 16.3109703 -3.9947989 -6.26133204 # CH2_alcohol3
298 50 3 0.246 15.0545244 -4.71314287 -5.80791283 # CH2_alcohol4
299 50 2 -0.65 15.0081272 -4.71450377 -4.38627577 # OH_alcohol5
300 50 1 0.404 15.0208559 -3.7873199 -4.09298277 # cH_alcohol6
301 51 1 0.404 15.6279449 -12.4146204 -3.65242791 # cH_alcohol1
302 51 2 -0.65 15.7274399 -12.6610222 -2.7170701 # OH_alcohol2
303 51 3 0.246 14.4665775 -13.1379786 -2.26316094 # CH2_alcohol3
304 51 3 0.246 13.4408197 -12.0287781 -2.3964169 # CH2_alcohol4
305 51 2 -0.65 13.8410835 -10.9272242 -1.59045506 # OH_alcohol5
306 51 1 0.404 14.7203026 -10.6459122 -1.89654398 # cH_alcohol6
307 52 1 0.404 -3.50929809 2.19004297 11.8688107 # cH_alcohol1
308 52 2 -0.65 -3.8456099 1.57069898 12.5387478 # OH_alcohol2
309 52 3 0.246 -2.75350499 0.764308989 12.9634104 # CH2_alcohol3
310 52 3 0.246 -2.21611595 -0.00735099986 11.7734461 # CH2_alcohol4
311 52 2 -0.65 -3.24450707 -0.846054018 11.2613935 # OH_alcohol5
312 52 1 0.404 -3.9915719 -0.27432701 11.0146646 # cH_alcohol6
313 53 1 0.404 12.2758074 -11.7563639 0.0259169992 # cH_alcohol1
314 53 2 -0.65 12.0923233 -11.3115721 0.870903015 # OH_alcohol2
315 53 3 0.246 13.3059273 -11.2826262 1.61226797 # CH2_alcohol3
316 53 3 0.246 13.7630129 -12.7058105 1.86893702 # CH2_alcohol4
317 53 2 -0.65 12.7684402 -13.3830061 2.62751293 # OH_alcohol5
318 53 1 0.404 11.9417934 -13.3549786 2.11592507 # cH_alcohol6
319 54 1 0.404 -8.77649403 -7.38494015 8.02065086 # cH_alcohol1
320 54 2 -0.65 -8.70873356 -8.22854042 7.54184484 # OH_alcohol2
321 54 3 0.246 -8.86945915 -9.27468967 8.49212646 # CH2_alcohol3
322 54 3 0.246 -7.76290178 -9.17929554 9.52493477 # CH2_alcohol4
323 54 2 -0.65 -6.50678921 -9.32826328 8.87440014 # OH_alcohol5
324 54 1 0.404 -6.43933296 -8.62539959 8.20560455 # cH_alcohol6
325 55 1 0.404 -2.03866601 4.22995806 14.7167797 # cH_alcohol1
326 55 2 -0.65 -2.61682606 3.45393705 14.8118076 # OH_alcohol2
327 55 3 0.246 -2.44102097 2.94739699 16.1293087 # CH2_alcohol3
328 55 3 0.246 -0.992905974 2.53517509 16.3117886 # CH2_alcohol4
329 55 2 -0.65 -0.679350019 1.51360595 15.3730192 # OH_alcohol5
330 55 1 0.404 -0.844187021 1.87314796 14.4845304 # cH_alcohol6
331 56 1 0.404 -2.64755797 -4.7215209 -14.451354 # cH_alcohol1
332 56 2 -0.65 -2.75757408 -5.06785202 -13.5494347 # OH_alcohol2
333 56 3 0.246 -2.40087008 -4.02937698 -12.6452074 # CH2_alcohol3
334 56 3 0.246 -0.951193988 -3.64826703 -12.8764172 # CH2_alcohol4
335 56 2 -0.65 -0.128535002 -4.78273201 -12.6326389 # OH_alcohol5
336 56 1 0.404 -0.418049008 -5.48826694 -13.2361746 # cH_alcohol6
337 57 1 0.404 -14.7868519 -5.96159315 12.1545706 # cH_alcohol1
338 57 2 -0.65 -15.1952963 -6.18831301 13.0073767 # OH_alcohol2
339 57 3 0.246 -16.3142052 -5.3289361 13.1885061 # CH2_alcohol3
340 57 3 0.246 -15.8341999 -3.89047098 13.214509 # CH2_alcohol4
341 57 2 -0.65 -14.934288 -3.72112012 14.3029413 # OH_alcohol5
342 57 1 0.404 -14.1998653 -4.34555292 14.1742573 # cH_alcohol6
343 58 1 0.404 2.45507908 15.3281183 -10.4042158 # cH_alcohol1
344 58 2 -0.65 2.40365505 15.282321 -11.3741474 # OH_alcohol2
345 58 3 0.246 1.52130306 16.3112411 -11.8055067 # CH2_alcohol3
346 58 3 0.246 0.149252996 16.0700607 -11.2058649 # CH2_alcohol4
347 58 2 -0.65 -0.341022015 14.8140793 -11.6590214 # OH_alcohol5
348 58 1 0.404 0.298559994 14.1348343 -11.3844042 # cH_alcohol6
349 59 1 0.404 -14.0967445 16.0336304 14.3527889 # cH_alcohol1
350 59 2 -0.65 -14.5285711 15.6826839 15.1502028 # OH_alcohol2
351 59 3 0.246 -13.8565178 16.230608 16.2777767 # CH2_alcohol3
352 59 3 0.246 -12.4035244 15.7968969 16.2467041 # CH2_alcohol4
353 59 2 -0.65 -12.3414783 14.3772879 16.3104706 # OH_alcohol5
354 59 1 0.404 -12.8395462 14.029007 15.5512056 # cH_alcohol6
355 60 1 0.404 10.8469067 -0.907272995 5.84436512 # cH_alcohol1
356 60 2 -0.65 10.8073769 -1.87869596 5.82760477 # OH_alcohol2
357 60 3 0.246 12.1366768 -2.36416101 5.971066 # CH2_alcohol3
358 60 3 0.246 12.9742842 -1.86349702 4.81002712 # CH2_alcohol4
359 60 2 -0.65 12.4252481 -2.35781002 3.59453607 # OH_alcohol5
360 60 1 0.404 11.5065088 -2.04345798 3.54017806 # cH_alcohol6
361 61 1 0.404 6.98710299 -2.79069901 15.0014 # cH_alcohol1
362 61 2 -0.65 6.51912498 -3.56218004 14.6390162 # OH_alcohol2
363 61 3 0.246 6.27175999 -4.45800591 15.7158642 # CH2_alcohol3
364 61 3 0.246 7.59681511 -4.89347792 16.3115616 # CH2_alcohol4
365 61 2 -0.65 8.3571434 -5.56251478 15.3128138 # OH_alcohol5
366 61 1 0.404 8.47889519 -4.94179678 14.5740728 # cH_alcohol6
367 62 1 0.404 1.28809404 2.25854206 -14.4233837 # cH_alcohol1
368 62 2 -0.65 1.94502902 1.93744195 -13.7824173 # OH_alcohol2
369 62 3 0.246 1.79253399 0.526724994 -13.6828194 # CH2_alcohol3
370 62 3 0.246 0.394017011 0.214061007 -13.1861782 # CH2_alcohol4
371 62 2 -0.65 0.217719004 0.79479301 -11.8997583 # OH_alcohol5
372 62 1 0.404 0.364582002 1.75203204 -11.9890776 # cH_alcohol6
373 63 1 0.404 4.56915522 -4.01974583 8.58549786 # cH_alcohol1
374 63 2 -0.65 3.59945297 -3.94817305 8.57758045 # OH_alcohol2
375 63 3 0.246 3.09078193 -4.91828203 9.48501587 # CH2_alcohol3
376 63 3 0.246 3.50827789 -6.29953384 9.01800156 # CH2_alcohol4
377 63 2 -0.65 2.96270204 -6.53721714 7.72607994 # OH_alcohol5
378 63 1 0.404 3.29553294 -5.83956099 7.13586712 # cH_alcohol6
379 64 1 0.404 3.55856609 -1.08730304 6.6257329 # cH_alcohol1
380 64 2 -0.65 2.74641609 -0.64449501 6.92546892 # OH_alcohol2
381 64 3 0.246 3.13156605 0.418844998 7.78817606 # CH2_alcohol3
382 64 3 0.246 3.87413692 -0.154911995 8.97966766 # CH2_alcohol4
383 64 2 -0.65 3.00959802 -1.03789699 9.68402386 # OH_alcohol5
384 64 1 0.404 2.73175001 -1.73206794 9.06210804 # cH_alcohol6
385 65 1 0.404 -4.93879604 -0.186336994 -15.8228254 # cH_alcohol1
386 65 2 -0.65 -5.78134823 0.214392006 -15.5489092 # OH_alcohol2
387 65 3 0.246 -5.95860481 1.40230703 -16.3109684 # CH2_alcohol3
388 65 3 0.246 -4.8160162 2.35488105 -16.0154095 # CH2_alcohol4
389 65 2 -0.65 -4.83044815 2.68159795 -14.6311197 # OH_alcohol5
390 65 1 0.404 -4.74617195 1.84991097 -14.1340809 # cH_alcohol6
391 66 1 0.404 11.8014679 -16.2227745 9.79103184 # cH_alcohol1
392 66 2 -0.65 11.3273258 -15.5127697 10.256424 # OH_alcohol2
393 66 3 0.246 10.0186291 -15.9893198 10.5453978 # CH2_alcohol3
394 66 3 0.246 9.31108284 -16.3126488 9.24343777 # CH2_alcohol4
395 66 2 -0.65 9.21474361 -15.1286221 8.46112919 # OH_alcohol5
396 66 1 0.404 10.1190348 -14.8038216 8.31074142 # cH_alcohol6
397 67 1 0.404 -13.9643869 16.3103466 -0.404507011 # cH_alcohol1
398 67 2 -0.65 -14.1197128 16.1121731 -1.343714 # OH_alcohol2
399 67 3 0.246 -15.50383 16.3151321 -1.60124302 # CH2_alcohol3
400 67 3 0.246 -16.3122978 15.3681068 -0.735341012 # CH2_alcohol4
401 67 2 -0.65 -15.9673834 14.028306 -1.06575298 # OH_alcohol5
402 67 1 0.404 -15.0115099 13.9279118 -0.917154014 # cH_alcohol6
403 68 1 0.404 11.8974466 7.01277924 -7.32953215 # cH_alcohol1
404 68 2 -0.65 12.4268179 7.7386508 -7.70153093 # OH_alcohol2
405 68 3 0.246 12.5558138 7.50273085 -9.09831238 # CH2_alcohol3
406 68 3 0.246 13.2706423 6.18245983 -9.31317997 # CH2_alcohol4
407 68 2 -0.65 14.5660858 6.25587416 -8.73039341 # OH_alcohol5
408 68 1 0.404 14.4501743 6.45520878 -7.78557396 # cH_alcohol6
409 69 1 0.404 -14.3675442 -16.1459007 -12.1242714 # cH_alcohol1
410 69 2 -0.65 -15.1176634 -16.2712326 -11.5183668 # OH_alcohol2
411 69 3 0.246 -16.3103848 -16.0545444 -12.2625179 # CH2_alcohol3
412 69 3 0.246 -16.3106556 -14.6341591 -12.7942743 # CH2_alcohol4
413 69 2 -0.65 -16.2729721 -13.7282925 -11.6982851 # OH_alcohol5
414 69 1 0.404 -15.4693804 -13.9229889 -11.186245 # cH_alcohol6
415 70 1 0.404 -4.94959402 11.7135754 -0.377730995 # cH_alcohol1
416 70 2 -0.65 -5.50939608 12.3355637 -0.872965991 # OH_alcohol2
417 70 3 0.246 -6.46598911 12.8676901 0.0353670008 # CH2_alcohol3
418 70 3 0.246 -7.31408119 11.7347517 0.580758989 # CH2_alcohol4
419 70 2 -0.65 -7.9943881 11.103756 -0.497310013 # OH_alcohol5
420 70 1 0.404 -7.31992579 10.7834826 -1.12051105 # cH_alcohol6
421 71 1 0.404 -0.708067 4.72970295 13.8375578 # cH_alcohol1
422 71 2 -0.65 -0.0725980029 5.08131123 14.4841318 # OH_alcohol2
423 71 3 0.246 -0.737286985 6.09235382 15.2319803 # CH2_alcohol3
424 71 3 0.246 -1.17646396 7.19670105 14.2897482 # CH2_alcohol4
425 71 2 -0.65 -0.0283749998 7.75707483 13.6643839 # OH_alcohol5
426 71 1 0.404 0.426979989 7.0386529 13.1928177 # cH_alcohol6
427 72 1 0.404 -11.7827196 -3.28110099 -11.4527216 # cH_alcohol1
428 72 2 -0.65 -11.0202694 -3.20751905 -12.0516882 # OH_alcohol2
429 72 3 0.246 -10.3629084 -4.46886015 -12.0654583 # CH2_alcohol3
430 72 3 0.246 -9.88557816 -4.79339314 -10.6629257 # CH2_alcohol4
431 72 2 -0.65 -8.96668053 -3.79248095 -10.2421999 # OH_alcohol5
432 72 1 0.404 -9.42932224 -2.93778706 -10.2784462 # cH_alcohol6
433 73 1 0.404 -12.5551701 6.50018406 -3.34008193 # cH_alcohol1
434 73 2 -0.65 -12.6214647 6.17273378 -2.42690706 # OH_alcohol2
435 73 3 0.246 -12.8159447 7.29944992 -1.58074903 # CH2_alcohol3
436 73 3 0.246 -11.6225433 8.22657108 -1.70920897 # CH2_alcohol4
437 73 2 -0.65 -10.4498434 7.53282881 -1.30091703 # OH_alcohol5
438 73 1 0.404 -10.3618727 6.7486248 -1.86936903 # cH_alcohol6
439 74 1 0.404 16.0580578 -3.61166811 -9.8586216 # cH_alcohol1
440 74 2 -0.65 15.442544 -3.05851102 -10.3691769 # OH_alcohol2
441 74 3 0.246 15.8506193 -1.70510495 -10.2108603 # CH2_alcohol3
442 74 3 0.246 15.7773056 -1.33480096 -8.74192715 # CH2_alcohol4
443 74 2 -0.65 14.4340258 -1.47284997 -8.29499626 # OH_alcohol5
444 74 1 0.404 14.1684618 -2.39561105 -8.44940186 # cH_alcohol6
445 75 1 0.404 -0.564657986 -11.8309336 -3.19343209 # cH_alcohol1
446 75 2 -0.65 -0.810576975 -12.5324697 -2.56663108 # OH_alcohol2
447 75 3 0.246 -0.0991970003 -13.7070789 -2.93747902 # CH2_alcohol3
448 75 3 0.246 -0.504482985 -14.1079941 -4.34292316 # CH2_alcohol4
449 75 2 -0.65 -1.90021205 -14.3813686 -4.3632741 # OH_alcohol5