LAMMPS data file
# Generated via moleculegraph
# Use if there are more then one bond style or dihedral style

3 atom types
8 bond types
2 angle types
2 dihedral types

3000 atoms
6500 bonds
2000 angles
1500 dihedrals

-18.22002993682189 18.22002993682189 xlo xhi
-18.22002993682189 18.22002993682189 ylo yhi
-18.22002993682189 18.22002993682189 zlo zhi

Masses

1 1.008 # H
2 15.999 # OH_alcohol
3 14.027 # CH2_alcohol

# Elements

Bond Coeffs

1 harmonic 200.0 0.97 # OH_alcohol cH_alcohol
2 harmonic 200.0 1.42 # CH2_alcohol OH_alcohol
3 table ../bonded_interactions.table [special][CH2_alcohol][cH_alcohol] # cH_alcohol CH2_alcohol
4 table ../bonded_interactions.table [special][OH_alcohol][cH_alcohol] # cH_alcohol OH_alcohol
5 table ../bonded_interactions.table [special][cH_alcohol][cH_alcohol] # cH_alcohol cH_alcohol
6 table ../bonded_interactions.table [special][CH2_alcohol][OH_alcohol] # OH_alcohol CH2_alcohol
7 table ../bonded_interactions.table [special][OH_alcohol][OH_alcohol] # OH_alcohol OH_alcohol
8 table ../bonded_interactions.table [special][CH2_alcohol][CH2_alcohol] # CH2_alcohol CH2_alcohol

Angle Coeffs

1 45.6354 107.4 # CH2_alcohol OH_alcohol cH_alcohol
2 61.8104 113.5 # CH2_alcohol CH2_alcohol OH_alcohol

Dihedral Coeffs

1 opls 0.3257 0.1465 1.2068 0.0 # CH2_alcohol CH2_alcohol OH_alcohol cH_alcohol
2 nharmonic 8 3.3966 -7.8358 1.8155 6.6448 -7.0705 -0.0781 5.4748 0.2415 # OH_alcohol CH2_alcohol CH2_alcohol OH_alcohol

Atoms

1 1 1 0.404 9.10277939 15.0907202 15.9289246 # cH_alcohol1
2 1 2 -0.65 9.95647621 14.8188343 16.3067951 # OH_alcohol2
3 1 3 0.246 10.8395977 15.9300194 16.2137451 # CH2_alcohol3
4 1 3 0.246 11.0178576 16.2994614 14.7536087 # CH2_alcohol4
5 1 2 -0.65 11.5840702 15.1936789 14.0608921 # OH_alcohol5
6 1 1 0.404 10.9803991 14.4393511 14.1723566 # cH_alcohol6
7 2 1 0.404 -9.90895462 -12.4925528 -2.16249895 # cH_alcohol1
8 2 2 -0.65 -10.2181244 -11.6546345 -2.54696608 # OH_alcohol2
9 2 3 0.246 -9.08507824 -10.8076954 -2.69594598 # CH2_alcohol3
10 2 3 0.246 -8.47483253 -10.5529881 -1.33103299 # CH2_alcohol4
11 2 2 -0.65 -9.43624592 -9.90599155 -0.50623697 # OH_alcohol5
12 2 1 0.404 -10.2135077 -10.4880695 -0.452363014 # cH_alcohol6
13 3 1 0.404 -4.4232769 -5.41248798 -0.0767560005 # cH_alcohol1
14 3 2 -0.65 -4.17891788 -5.36888885 -1.01691306 # OH_alcohol2
15 3 3 0.246 -3.86977696 -6.69095087 -1.44103396 # CH2_alcohol3
16 3 3 0.246 -2.69876003 -7.21002007 -0.628907025 # CH2_alcohol4
17 3 2 -0.65 -1.571244 -6.37221289 -0.852505028 # OH_alcohol5
18 3 1 0.404 -1.82173705 -5.46972513 -0.590550005 # cH_alcohol6
19 4 1 0.404 -7.8306222 14.4137087 2.84565997 # cH_alcohol1
20 4 2 -0.65 -7.15593815 14.9417496 3.30553102 # OH_alcohol2
21 4 3 0.246 -7.26366377 16.2793198 2.83372402 # CH2_alcohol3
22 4 3 0.246 -7.00242281 16.2996101 1.33986795 # CH2_alcohol4
23 4 2 -0.65 -5.68573093 15.821785 1.09245896 # OH_alcohol5
24 4 1 0.404 -5.628232 14.9223127 1.45783198 # cH_alcohol6
25 5 1 0.404 13.049819 -14.4191923 -1.11136198 # cH_alcohol1
26 5 2 -0.65 13.2352648 -15.0786982 -1.80141199 # OH_alcohol2
27 5 3 0.246 13.351922 -16.3448277 -1.16375804 # CH2_alcohol3
28 5 3 0.246 14.5016117 -16.2971802 -0.175727993 # CH2_alcohol4
29 5 2 -0.65 15.7058907 -16.0154037 -0.878238976 # OH_alcohol5
30 5 1 0.404 15.5853634 -15.165123 -1.334692 # cH_alcohol6
31 6 1 0.404 -5.73358488 2.04857206 -10.8978291 # cH_alcohol1
32 6 2 -0.65 -5.70816994 1.57063794 -10.0514002 # OH_alcohol2
33 6 3 0.246 -5.98962879 0.203032002 -10.3229313 # CH2_alcohol3
34 6 3 0.246 -7.37375498 0.0944660008 -10.9334002 # CH2_alcohol4
35 6 2 -0.65 -8.33032703 0.592935026 -10.0061979 # OH_alcohol5
36 6 1 0.404 -8.09282684 1.51526403 -9.80932999 # cH_alcohol6
37 7 1 0.404 -6.91356802 -3.80044389 2.70568299 # cH_alcohol1
38 7 2 -0.65 -6.929883 -3.2107811 3.47868896 # OH_alcohol2
39 7 3 0.246 -7.83324814 -2.15066409 3.18993497 # CH2_alcohol3
40 7 3 0.246 -7.33401203 -1.39224398 1.97509897 # CH2_alcohol4
41 7 2 -0.65 -6.05173397 -0.847851992 2.26251698 # OH_alcohol5
42 7 1 0.404 -5.4652071 -1.58858705 2.49306107 # cH_alcohol6
43 8 1 0.404 -4.85134411 -14.8528996 4.50651979 # cH_alcohol1
44 8 2 -0.65 -4.04058218 -14.3197737 4.44367123 # OH_alcohol2
45 8 3 0.246 -3.00767589 -15.1667242 3.95471597 # CH2_alcohol3
46 8 3 0.246 -2.79865408 -16.3072243 4.93238211 # CH2_alcohol4
47 8 2 -0.65 -2.40792108 -15.7733717 6.19156313 # OH_alcohol5
48 8 1 0.404 -3.11254501 -15.1702662 6.48417711 # cH_alcohol6
49 9 1 0.404 -4.20215893 -14.0058708 14.9711323 # cH_alcohol1
50 9 2 -0.65 -5.10873699 -13.6542826 14.9678965 # OH_alcohol2
51 9 3 0.246 -5.71325684 -14.0166559 16.2034264 # CH2_alcohol3
52 9 3 0.246 -5.74862623 -15.5289984 16.3122044 # CH2_alcohol4
53 9 2 -0.65 -6.52421999 -16.0533028 15.241334 # OH_alcohol5
54 9 1 0.404 -6.11159182 -15.7596283 14.4110661 # cH_alcohol6
55 10 1 0.404 -15.9105558 -10.3902512 -12.7138844 # cH_alcohol1
56 10 2 -0.65 -16.3051338 -10.0490751 -11.8932657 # OH_alcohol2
57 10 3 0.246 -16.1071625 -8.64059925 -11.8759403 # CH2_alcohol3
58 10 3 0.246 -14.6186838 -8.3499403 -11.8903837 # CH2_alcohol4
59 10 2 -0.65 -14.0233374 -8.91948414 -10.7309055 # OH_alcohol5
60 10 1 0.404 -14.205863 -9.87459278 -10.748333 # cH_alcohol6
61 11 1 0.404 -14.4431467 -7.57518291 -15.157258 # cH_alcohol1
62 11 2 -0.65 -13.6260948 -7.07487011 -14.991065 # OH_alcohol2
63 11 3 0.246 -12.788168 -7.23229885 -16.1296558 # CH2_alcohol3
64 11 3 0.246 -12.463583 -8.7033453 -16.3055305 # CH2_alcohol4
65 11 2 -0.65 -11.7747688 -9.16787529 -15.1509943 # OH_alcohol5
66 11 1 0.404 -12.3531532 -9.01390839 -14.3844299 # cH_alcohol6
67 12 1 0.404 14.3401794 5.82397318 -5.79519701 # cH_alcohol1
68 12 2 -0.65 15.0589762 5.17183113 -5.85477018 # OH_alcohol2
69 12 3 0.246 16.2882347 5.88751888 -5.85113287 # CH2_alcohol3
70 12 3 0.246 16.3282299 6.80834913 -7.05559683 # CH2_alcohol4
71 12 2 -0.65 16.2468376 6.02605915 -8.24075699 # OH_alcohol5
72 12 1 0.404 15.4176311 5.5195179 -8.19970894 # cH_alcohol6
73 13 1 0.404 11.875144 -8.06378078 -14.4903336 # cH_alcohol1
74 13 2 -0.65 12.5652113 -8.08934021 -13.8057461 # OH_alcohol2
75 13 3 0.246 13.1310549 -9.39433384 -13.8162394 # CH2_alcohol3
76 13 3 0.246 12.0481758 -10.4057913 -13.492836 # CH2_alcohol4
77 13 2 -0.65 11.5295458 -10.1320906 -12.1969509 # OH_alcohol5
78 13 1 0.404 11.1844053 -9.22289658 -12.2067842 # cH_alcohol6
79 14 1 0.404 -0.490965009 1.75370097 -0.623880982 # cH_alcohol1
80 14 2 -0.65 0.0405180007 1.73777497 0.190231994 # OH_alcohol2
81 14 3 0.246 -0.165418997 0.474997014 0.811743975 # CH2_alcohol3
82 14 3 0.246 -1.63535702 0.325955003 1.15428102 # CH2_alcohol4
83 14 2 -0.65 -2.00797606 1.35813904 2.05924296 # OH_alcohol5
84 14 1 0.404 -1.82184505 2.20821905 1.62499404 # cH_alcohol6
85 15 1 0.404 13.064887 10.5500031 3.73724508 # cH_alcohol1
86 15 2 -0.65 13.2608624 11.490695 3.88623905 # OH_alcohol2
87 15 3 0.246 13.7805538 12.0177279 2.67155695 # CH2_alcohol3
88 15 3 0.246 15.0553551 11.2769108 2.3161211 # CH2_alcohol4
89 15 2 -0.65 16.0086079 11.4690924 3.35418701 # OH_alcohol5
90 15 1 0.404 15.6139517 11.1357517 4.17819214 # cH_alcohol6
91 16 1 0.404 4.67501593 13.8069353 15.0851154 # cH_alcohol1
92 16 2 -0.65 4.55218697 13.8195696 16.0496159 # OH_alcohol2
93 16 3 0.246 3.15514803 13.9068127 16.3025341 # CH2_alcohol3
94 16 3 0.246 2.62245989 15.19242 15.6994429 # CH2_alcohol4
95 16 2 -0.65 3.2774539 16.2976704 16.3098621 # OH_alcohol5
96 16 1 0.404 4.23186684 16.1933002 16.1547642 # cH_alcohol6
97 17 1 0.404 14.4354439 -2.99727392 -9.68834782 # cH_alcohol1
98 17 2 -0.65 15.2968426 -2.77868509 -10.0829601 # OH_alcohol2
99 17 3 0.246 16.3054123 -3.23033905 -9.18736267 # CH2_alcohol3
100 17 3 0.246 16.1491718 -2.5095911 -7.8620801 # CH2_alcohol4
101 17 2 -0.65 16.3040276 -1.11148202 -8.07306767 # OH_alcohol5
102 17 1 0.404 15.6283369 -0.836820006 -8.71638489 # cH_alcohol6
103 18 1 0.404 -14.0523062 1.09202003 10.8727398 # cH_alcohol1
104 18 2 -0.65 -14.4878454 0.703049004 10.0952339 # OH_alcohol2
105 18 3 0.246 -15.8829498 0.649779022 10.3675175 # CH2_alcohol3
106 18 3 0.246 -16.1169853 -0.228951007 11.5813227 # CH2_alcohol4
107 18 2 -0.65 -15.6452684 -1.54145205 11.3019819 # OH_alcohol5
108 18 1 0.404 -14.7003927 -1.47142398 11.0825272 # cH_alcohol6
109 19 1 0.404 13.6094494 8.61897373 -16.2370396 # cH_alcohol1
110 19 2 -0.65 14.0845747 9.28052616 -15.7058992 # OH_alcohol2
111 19 3 0.246 15.35783 9.47932434 -16.3080578 # CH2_alcohol3
112 19 3 0.246 16.120018 8.16812801 -16.2981186 # CH2_alcohol4
113 19 2 -0.65 16.3009014 7.746665 -14.9516935 # OH_alcohol5
114 19 1 0.404 15.4183569 7.65540504 -14.5533972 # cH_alcohol6
115 20 1 0.404 -5.3250618 -9.16904163 4.17225409 # cH_alcohol1
116 20 2 -0.65 -4.55330086 -9.28255081 3.59173012 # OH_alcohol2
117 20 3 0.246 -4.07466412 -7.9856329 3.25675702 # CH2_alcohol3
118 20 3 0.246 -5.16497993 -7.2306118 2.52094698 # CH2_alcohol4
119 20 2 -0.65 -5.48977709 -7.93140602 1.32654202 # OH_alcohol5
120 20 1 0.404 -5.77695513 -8.82496166 1.58137202 # cH_alcohol6
121 21 1 0.404 13.186614 5.55124283 -14.3552809 # cH_alcohol1
122 21 2 -0.65 13.1371946 4.93389082 -15.1049089 # OH_alcohol2
123 21 3 0.246 13.1705103 5.70620918 -16.2989407 # CH2_alcohol3
124 21 3 0.246 11.9733315 6.6371212 -16.3196564 # CH2_alcohol4
125 21 2 -0.65 10.7815237 5.86100197 -16.2986145 # OH_alcohol5
126 21 1 0.404 10.8023844 5.31595421 -15.4934187 # cH_alcohol6
127 22 1 0.404 -0.57507199 -11.0715818 3.77042103 # cH_alcohol1
128 22 2 -0.65 -1.53923297 -11.104249 3.89221692 # OH_alcohol2
129 22 3 0.246 -1.82279599 -10.6182737 5.19863081 # CH2_alcohol3
130 22 3 0.246 -1.14511597 -11.5141029 6.21770096 # CH2_alcohol4
131 22 2 -0.65 -1.65831304 -12.8344355 6.08901787 # OH_alcohol5
132 22 1 0.404 -1.48538494 -13.1272392 5.17785692 # cH_alcohol6
133 23 1 0.404 -9.82381821 -1.04376805 10.125865 # cH_alcohol1
134 23 2 -0.65 -9.22722435 -0.601719975 9.49802971 # OH_alcohol2
135 23 3 0.246 -9.77175808 0.682918012 9.22146893 # CH2_alcohol3
136 23 3 0.246 -11.1432858 0.514819026 8.59623718 # CH2_alcohol4
137 23 2 -0.65 -11.0127707 -0.209020004 7.37876892 # OH_alcohol5
138 23 1 0.404 -10.6041822 -1.06569397 7.59094477 # cH_alcohol6
139 24 1 0.404 3.91789794 -3.00985503 3.67239094 # cH_alcohol1
140 24 2 -0.65 3.96425796 -3.00932288 2.70112491 # OH_alcohol2
141 24 3 0.246 2.99167204 -3.93176293 2.22522998 # CH2_alcohol3
142 24 3 0.246 3.32018805 -5.31441689 2.7549541 # CH2_alcohol4
143 24 2 -0.65 4.60328579 -5.70125484 2.27827311 # OH_alcohol5
144 24 1 0.404 5.24172592 -5.03488302 2.58518505 # cH_alcohol6
145 25 1 0.404 -15.0897026 14.5125055 4.44078493 # cH_alcohol1
146 25 2 -0.65 -14.4486179 15.0182228 3.91280103 # OH_alcohol2
147 25 3 0.246 -15.0022125 16.3090534 3.68789506 # CH2_alcohol3
148 25 3 0.246 -16.3009434 16.1632195 2.9182899 # CH2_alcohol4
149 25 2 -0.65 -16.0312138 15.5460348 1.66547894 # OH_alcohol5
150 25 1 0.404 -15.6195087 14.6839304 1.84748805 # cH_alcohol6
151 26 1 0.404 -0.739642978 -13.3931627 -5.86577177 # cH_alcohol1
152 26 2 -0.65 -1.70102894 -13.3548822 -6.00641394 # OH_alcohol2
153 26 3 0.246 -1.92943799 -12.6343288 -7.21137285 # CH2_alcohol3
154 26 3 0.246 -1.37544501 -11.2304974 -7.06100512 # CH2_alcohol4
155 26 2 -0.65 -2.04911995 -10.5777845 -5.99173594 # OH_alcohol5
156 26 1 0.404 -1.90868604 -11.110178 -5.19005823 # cH_alcohol6
157 27 1 0.404 6.51929712 -12.2867279 -3.89889693 # cH_alcohol1
158 27 2 -0.65 6.21058989 -12.1007786 -4.80201912 # OH_alcohol2
159 27 3 0.246 6.76718092 -13.091486 -5.65758991 # CH2_alcohol3
160 27 3 0.246 8.28005409 -12.9997854 -5.60219908 # CH2_alcohol4
161 27 2 -0.65 8.68381882 -11.7127314 -6.05350208 # OH_alcohol5
162 27 1 0.404 8.25988674 -11.0547943 -5.47622204 # cH_alcohol6
163 28 1 0.404 -13.4980183 -1.10645294 10.9079933 # cH_alcohol1
164 28 2 -0.65 -12.6164017 -1.44807899 11.1350422 # OH_alcohol2
165 28 3 0.246 -12.4417238 -1.28495598 12.5372448 # CH2_alcohol3
166 28 3 0.246 -12.5248108 0.190623999 12.8778687 # CH2_alcohol4
167 28 2 -0.65 -11.4877682 0.883819997 12.1943283 # OH_alcohol5
168 28 1 0.404 -11.6084642 0.724654019 11.2425127 # cH_alcohol6
169 29 1 0.404 5.72648716 14.4728613 13.5222235 # cH_alcohol1
170 29 2 -0.65 5.29728699 15.3452978 13.5344381 # OH_alcohol2
171 29 3 0.246 6.32500601 16.3278904 13.5744514 # CH2_alcohol3
172 29 3 0.246 7.14146805 16.1387367 14.838521 # CH2_alcohol4
173 29 2 -0.65 6.29301977 16.3041477 15.9681139 # OH_alcohol5
174 29 1 0.404 5.579772 15.6469212 15.8961067 # cH_alcohol6
175 30 1 0.404 16.1250343 6.61337614 11.2906351 # cH_alcohol1
176 30 2 -0.65 16.0776768 6.50162506 10.3258667 # OH_alcohol2
177 30 3 0.246 14.8573866 7.08553123 9.88627529 # CH2_alcohol3
178 30 3 0.246 13.6977587 6.36340904 10.5451107 # CH2_alcohol4
179 30 2 -0.65 13.7252464 4.99412584 10.1610327 # OH_alcohol5
180 30 1 0.404 14.5832462 4.63022709 10.439002 # cH_alcohol6
181 31 1 0.404 3.07228398 -14.9129229 4.58089781 # cH_alcohol1
182 31 2 -0.65 3.20555902 -15.1016159 5.5254302 # OH_alcohol2
183 31 3 0.246 2.4372859 -16.2554302 5.84443903 # CH2_alcohol3
184 31 3 0.246 0.972691 -15.9632998 5.58008289 # CH2_alcohol4
185 31 2 -0.65 0.558273971 -14.8829536 6.40731716 # OH_alcohol5
186 31 1 0.404 1.12342703 -14.1201763 6.19606876 # cH_alcohol6
187 32 1 0.404 12.3565149 3.05321097 8.41746998 # cH_alcohol1
188 32 2 -0.65 11.8795261 2.3502419 8.89056969 # OH_alcohol2
189 32 3 0.246 11.900156 1.18996298 8.06799793 # CH2_alcohol3
190 32 3 0.246 11.1969347 1.49814296 6.76003504 # CH2_alcohol4
191 32 2 -0.65 9.8468399 1.854074 7.03162909 # OH_alcohol5
192 32 1 0.404 9.86185169 2.62458491 7.62487507 # cH_alcohol6
193 33 1 0.404 -9.79807568 16.3008633 15.6954994 # cH_alcohol1
194 33 2 -0.65 -9.43046379 15.4259472 15.4836254 # OH_alcohol2
195 33 3 0.246 -8.28794765 15.2301512 16.3080139 # CH2_alcohol3
196 33 3 0.246 -7.26477623 16.3063011 15.9993353 # CH2_alcohol4
197 33 2 -0.65 -6.87902117 16.2020359 14.634223 # OH_alcohol5
198 33 1 0.404 -7.68260622 16.3013363 14.0954809 # cH_alcohol6
199 34 1 0.404 -0.410356998 -7.8466692 3.26956892 # cH_alcohol1
200 34 2 -0.65 -0.780272007 -7.41366196 4.05771589 # OH_alcohol2
201 34 3 0.246 0.271955997 -6.68750381 4.68125916 # CH2_alcohol3
202 34 3 0.246 1.36539304 -7.65509892 5.09164619 # CH2_alcohol4
203 34 2 -0.65 0.831628025 -8.59250259 6.0187788 # OH_alcohol5
204 34 1 0.404 0.0916350037 -9.04700089 5.58094788 # cH_alcohol6
205 35 1 0.404 -6.80202103 -5.85608196 -4.78417921 # cH_alcohol1
206 35 2 -0.65 -6.60054779 -5.61651897 -3.86356711 # OH_alcohol2
207 35 3 0.246 -6.3205328 -4.22221708 -3.83510494 # CH2_alcohol3
208 35 3 0.246 -5.11738014 -3.94111204 -4.71468782 # CH2_alcohol4
209 35 2 -0.65 -3.99530697 -4.6532011 -4.20765018 # OH_alcohol5
210 35 1 0.404 -4.22713423 -5.59770203 -4.20240021 # cH_alcohol6
211 36 1 0.404 -14.3411942 11.8520622 13.463192 # cH_alcohol1
212 36 2 -0.65 -15.0446539 11.4125271 12.9557867 # OH_alcohol2
213 36 3 0.246 -16.2874603 11.7693634 13.5485706 # CH2_alcohol3
214 36 3 0.246 -16.308485 11.2825584 14.9848299 # CH2_alcohol4
215 36 2 -0.65 -16.174839 9.86650658 14.9969044 # OH_alcohol5
216 36 1 0.404 -15.3373652 9.64862156 14.5530376 # cH_alcohol6
217 37 1 0.404 -14.8128481 -2.06398606 -15.3266258 # cH_alcohol1
218 37 2 -0.65 -15.0409317 -2.18195796 -16.2644787 # OH_alcohol2
219 37 3 0.246 -16.3336029 -2.77289891 -16.3200207 # CH2_alcohol3
220 37 3 0.246 -16.2912788 -4.12157106 -15.6275225 # CH2_alcohol4
221 37 2 -0.65 -15.3642483 -4.96180487 -16.3041534 # OH_alcohol5
222 37 1 0.404 -14.4993649 -4.51745796 -16.2844753 # cH_alcohol6
223 38 1 0.404 13.2234917 16.060461 11.0687418 # cH_alcohol1
224 38 2 -0.65 13.485199 16.3052254 11.972681 # OH_alcohol2
225 38 3 0.246 14.8936386 16.1330643 12.0724459 # CH2_alcohol3
226 38 3 0.246 15.2336798 14.6776152 11.8149529 # CH2_alcohol4
227 38 2 -0.65 14.5939426 13.8709116 12.7963657 # OH_alcohol5
228 38 1 0.404 13.6377087 14.0361538 12.7318344 # cH_alcohol6
229 39 1 0.404 -14.2389021 -16.3022308 -1.30419898 # cH_alcohol1
230 39 2 -0.65 -14.9234571 -16.1977386 -0.621576011 # OH_alcohol2
231 39 3 0.246 -16.1883717 -16.3033466 -1.263551 # CH2_alcohol3
232 39 3 0.246 -16.3150005 -15.19631 -2.2924819 # CH2_alcohol4
233 39 2 -0.65 -16.2291603 -13.9385157 -1.63385403 # OH_alcohol5
234 39 1 0.404 -15.3732738 -13.908227 -1.17299199 # cH_alcohol6
235 40 1 0.404 -3.95381594 -11.3931608 11.7393732 # cH_alcohol1
236 40 2 -0.65 -4.64970398 -11.1517563 12.3741741 # OH_alcohol2
237 40 3 0.246 -5.79724503 -11.9355173 12.07059 # CH2_alcohol3
238 40 3 0.246 -6.25491095 -11.6170874 10.6601257 # CH2_alcohol4
239 40 2 -0.65 -6.59723997 -10.238636 10.5833721 # OH_alcohol5
240 40 1 0.404 -5.80794907 -9.72764587 10.831893 # cH_alcohol6
241 41 1 0.404 -16.1705723 -0.754323006 -6.83655787 # cH_alcohol1
242 41 2 -0.65 -15.6606226 -0.986355007 -7.63130283 # OH_alcohol2
243 41 3 0.246 -16.3040867 -2.09706092 -8.24414921 # CH2_alcohol3
244 41 3 0.246 -16.3059788 -3.26409411 -7.2754941 # CH2_alcohol4
245 41 2 -0.65 -14.9620647 -3.61424589 -6.96808481 # OH_alcohol5
246 41 1 0.404 -14.5355539 -2.82784796 -6.58661413 # cH_alcohol6
247 42 1 0.404 -9.00404358 5.8128891 -14.1013947 # cH_alcohol1
248 42 2 -0.65 -9.45500946 5.65567303 -13.2543888 # OH_alcohol2
249 42 3 0.246 -10.1670561 6.84121084 -12.9215479 # CH2_alcohol3
250 42 3 0.246 -9.18220901 7.98528719 -12.7751617 # CH2_alcohol4
251 42 2 -0.65 -8.26844215 7.68003082 -11.728713 # OH_alcohol5
252 42 1 0.404 -7.82385921 6.84741497 -11.9631271 # cH_alcohol6
253 43 1 0.404 -14.0830336 -2.62178707 -12.2693825 # cH_alcohol1
254 43 2 -0.65 -13.507349 -3.38649702 -12.098175 # OH_alcohol2
255 43 3 0.246 -14.2521744 -4.55986214 -12.4010706 # CH2_alcohol3
256 43 3 0.246 -15.4693136 -4.6201458 -11.498188 # CH2_alcohol4
257 43 2 -0.65 -15.0398045 -4.67643309 -10.1433601 # OH_alcohol5
258 43 1 0.404 -14.5025988 -3.88353109 -9.97433567 # cH_alcohol6
259 44 1 0.404 7.06109905 12.2058516 6.11609411 # cH_alcohol1
260 44 2 -0.65 7.17270803 11.9293022 5.19058323 # OH_alcohol2
261 44 3 0.246 7.5465188 13.0794725 4.44180584 # CH2_alcohol3
262 44 3 0.246 6.44189882 14.1141214 4.53968811 # CH2_alcohol4
263 44 2 -0.65 5.24648523 13.5697966 3.99388194 # OH_alcohol5
264 44 1 0.404 5.03504419 12.7656689 4.49838591 # cH_alcohol6
265 45 1 0.404 6.76171684 15.4336643 7.18159485 # cH_alcohol1
266 45 2 -0.65 6.32651186 16.3031788 7.18874693 # OH_alcohol2
267 45 3 0.246 5.20029688 16.2115498 8.05277157 # CH2_alcohol3
268 45 3 0.246 4.24630404 15.1634588 7.512712 # CH2_alcohol4
269 45 2 -0.65 3.81016207 15.5564566 6.2171278 # OH_alcohol5
270 45 1 0.404 4.60089588 15.6484461 5.65844202 # cH_alcohol6
271 46 1 0.404 -0.533406973 -12.3743982 2.50795507 # cH_alcohol1
272 46 2 -0.65 0.191952005 -12.6493912 1.92166102 # OH_alcohol2
273 46 3 0.246 1.18666399 -13.2653913 2.73060393 # CH2_alcohol3
274 46 3 0.246 1.696931 -12.2564411 3.7414999 # CH2_alcohol4
275 46 2 -0.65 2.27391791 -11.1563692 3.04858398 # OH_alcohol5
276 46 1 0.404 1.58474398 -10.7782516 2.47594094 # cH_alcohol6
277 47 1 0.404 13.941637 8.24103355 15.375246 # cH_alcohol1
278 47 2 -0.65 14.2247915 8.26765442 16.3050976 # OH_alcohol2
279 47 3 0.246 15.6311531 8.48039436 16.318819 # CH2_alcohol3
280 47 3 0.246 16.3128796 7.32796717 15.6064816 # CH2_alcohol4
281 47 2 -0.65 16.0169296 6.11782789 16.2929115 # OH_alcohol5
282 47 1 0.404 15.049716 6.01648808 16.3019753 # cH_alcohol6
283 48 1 0.404 14.8305454 -13.5618792 12.2237759 # cH_alcohol1
284 48 2 -0.65 15.0561953 -13.8098631 11.3110371 # OH_alcohol2
285 48 3 0.246 16.3047028 -13.2041111 10.9986448 # CH2_alcohol3
286 48 3 0.246 16.1634102 -11.6976013 11.1022177 # CH2_alcohol4
287 48 2 -0.65 15.1844921 -11.2580042 10.1685791 # OH_alcohol5
288 48 1 0.404 14.3527031 -11.7150621 10.3808966 # cH_alcohol6
289 49 1 0.404 -3.03111005 -6.40385199 -14.7685776 # cH_alcohol1
290 49 2 -0.65 -2.60590291 -7.22790718 -14.4759359 # OH_alcohol2
291 49 3 0.246 -2.37072706 -8.02267838 -15.6319323 # CH2_alcohol3
292 49 3 0.246 -3.69813299 -8.33636761 -16.2951469 # CH2_alcohol4
293 49 2 -0.65 -4.51107407 -9.06611633 -15.3842115 # OH_alcohol5
294 49 1 0.404 -4.62425709 -8.51693344 -14.5895796 # cH_alcohol6
295 50 1 0.404 -4.77574778 13.238019 13.3566542 # cH_alcohol1
296 50 2 -0.65 -4.65720415 13.0642958 12.407299 # OH_alcohol2
297 50 3 0.246 -3.95536208 11.8335104 12.2812901 # CH2_alcohol3
298 50 3 0.246 -2.60188603 11.9647093 12.9529686 # CH2_alcohol4
299 50 2 -0.65 -1.86103797 12.9929714 12.3071909 # OH_alcohol5
300 50 1 0.404 -2.37973905 13.8128653 12.374835 # cH_alcohol6
301 51 1 0.404 -3.8836689 -3.51614809 8.48694706 # cH_alcohol1
302 51 2 -0.65 -3.93775105 -3.12300301 9.37465191 # OH_alcohol2
303 51 3 0.246 -4.85928917 -3.89856505 10.1313334 # CH2_alcohol3
304 51 3 0.246 -6.2188201 -3.84439611 9.46125412 # CH2_alcohol4
305 51 2 -0.65 -6.66460609 -2.49416399 9.42443657 # OH_alcohol5
306 51 1 0.404 -5.99923992 -1.98039401 8.93537521 # cH_alcohol6
307 52 1 0.404 1.29327202 -14.9718876 -5.34992409 # cH_alcohol1
308 52 2 -0.65 0.842522025 -14.3901958 -4.71434021 # OH_alcohol2
309 52 3 0.246 1.09269202 -14.9035406 -3.41157889 # CH2_alcohol3
310 52 3 0.246 0.526050985 -16.3070946 -3.31558204 # CH2_alcohol4
311 52 2 -0.65 -0.87826997 -16.2567062 -3.535923 # OH_alcohol5
312 52 1 0.404 -1.02187097 -15.8677197 -4.41564989 # cH_alcohol6
313 53 1 0.404 -13.4469833 14.1468763 7.5993228 # cH_alcohol1
314 53 2 -0.65 -13.3983593 14.6919794 6.795578 # OH_alcohol2
315 53 3 0.246 -13.4606504 16.0549316 7.19779396 # CH2_alcohol3
316 53 3 0.246 -14.7780981 16.3016605 7.90752506 # CH2_alcohol4
317 53 2 -0.65 -15.8470802 16.0305538 7.009202 # OH_alcohol5
318 53 1 0.404 -15.7587366 15.1058826 6.72104692 # cH_alcohol6
319 54 1 0.404 -1.07638299 -16.3046341 -14.105937 # cH_alcohol1
320 54 2 -0.65 -1.76445699 -15.7483349 -13.7027102 # OH_alcohol2
321 54 3 0.246 -3.02515602 -16.3138905 -14.0404701 # CH2_alcohol3
322 54 3 0.246 -3.18043089 -16.3112049 -15.54916 # CH2_alcohol4
323 54 2 -0.65 -3.12971711 -14.9694443 -16.0185356 # OH_alcohol5
324 54 1 0.404 -2.27559996 -14.5955658 -15.7418547 # cH_alcohol6
325 55 1 0.404 5.35596704 15.4223185 -13.1045179 # cH_alcohol1
326 55 2 -0.65 5.87336206 15.2525349 -12.2989225 # OH_alcohol2
327 55 3 0.246 6.82009411 16.3060017 -12.1677551 # CH2_alcohol3
328 55 3 0.246 7.73538303 16.3021126 -13.3770914 # CH2_alcohol4
329 55 2 -0.65 8.42465973 15.0591612 -13.433445 # OH_alcohol5
330 55 1 0.404 7.75472212 14.3559837 -13.4842234 # cH_alcohol6
331 56 1 0.404 8.10415936 9.74217892 5.28898478 # cH_alcohol1
332 56 2 -0.65 8.56764412 9.311553 4.55057383 # OH_alcohol2
333 56 3 0.246 7.94623899 8.05094337 4.33145285 # CH2_alcohol3
334 56 3 0.246 8.08150005 7.20805502 5.58505011 # CH2_alcohol4
335 56 2 -0.65 9.46202374 7.00632906 5.86193895 # OH_alcohol5
336 56 1 0.404 9.86924171 7.88295221 5.96944618 # cH_alcohol6
337 57 1 0.404 -5.86519003 -16.1535988 -10.6803579 # cH_alcohol1
338 57 2 -0.65 -6.47528076 -15.4115601 -10.8309374 # OH_alcohol2
339 57 3 0.246 -7.50860786 -15.874382 -11.6919413 # CH2_alcohol3
340 57 3 0.246 -6.89646482 -16.31213 -13.0087252 # CH2_alcohol4
341 57 2 -0.65 -6.24923992 -15.1987 -13.6125288 # OH_alcohol5
342 57 1 0.404 -5.57521915 -14.8792429 -12.9884319 # cH_alcohol6
343 58 1 0.404 13.9338999 16.059145 15.3901787 # cH_alcohol1
344 58 2 -0.65 14.2725363 16.1039391 16.3005772 # OH_alcohol2
345 58 3 0.246 15.6790628 16.3022079 16.2252922 # CH2_alcohol3
346 58 3 0.246 16.3063488 15.1268082 15.500576 # CH2_alcohol4
347 58 2 -0.65 16.0411129 13.9357548 16.2315006 # OH_alcohol5
348 58 1 0.404 15.0753031 13.8447752 16.3006916 # cH_alcohol6
349 59 1 0.404 16.2887421 -10.9693718 8.14251041 # cH_alcohol1
350 59 2 -0.65 16.1574173 -11.371871 7.26714993 # OH_alcohol2
351 59 3 0.246 15.4589529 -10.4294329 6.46262884 # CH2_alcohol3
352 59 3 0.246 14.1146441 -10.1348047 7.10003805 # CH2_alcohol4
353 59 2 -0.65 13.3604288 -11.3387365 7.17014122 # OH_alcohol5
354 59 1 0.404 13.8766422 -11.976511 7.69227219 # cH_alcohol6
355 60 1 0.404 -16.2155838 13.7821941 -10.7778969 # cH_alcohol1
356 60 2 -0.65 -15.8363733 14.019434 -9.9145174 # OH_alcohol2
357 60 3 0.246 -16.305891 15.3206358 -9.58327293 # CH2_alcohol3
358 60 3 0.246 -15.8330603 16.3010159 -10.6394682 # CH2_alcohol4
359 60 2 -0.65 -14.4108601 16.3093224 -10.661499 # OH_alcohol5
360 60 1 0.404 -14.1166391 15.4021339 -10.8520193 # cH_alcohol6
361 61 1 0.404 -14.6758509 -15.2005711 -5.09412622 # cH_alcohol1
362 61 2 -0.65 -14.975668 -14.556673 -5.758214 # OH_alcohol2
363 61 3 0.246 -16.3054829 -14.905365 -6.1233201 # CH2_alcohol3
364 61 3 0.246 -16.305006 -16.2989445 -6.72181892 # CH2_alcohol4
365 61 2 -0.65 -15.4849386 -16.3046246 -7.88399982 # OH_alcohol5
366 61 1 0.404 -14.5931625 -16.0266056 -7.61327314 # cH_alcohol6
367 62 1 0.404 15.4169712 3.1375699 4.74685383 # cH_alcohol1
368 62 2 -0.65 15.2064371 2.43751192 4.10568094 # OH_alcohol2
369 62 3 0.246 16.2545452 2.40748405 3.14450192 # CH2_alcohol3
370 62 3 0.246 16.317688 3.74869609 2.43921709 # CH2_alcohol4
371 62 2 -0.65 15.0817108 3.98251891 1.77521896 # OH_alcohol5
372 62 1 0.404 14.3800392 3.96012092 2.44827795 # cH_alcohol6
373 63 1 0.404 -8.85480881 -13.8829231 0.277377993 # cH_alcohol1
374 63 2 -0.65 -9.45810127 -13.7333813 -0.470407009 # OH_alcohol2
375 63 3 0.246 -10.7761669 -14.0258589 -0.0226840004 # CH2_alcohol3
376 63 3 0.246 -10.841445 -15.4785843 0.40811801 # CH2_alcohol4
377 63 2 -0.65 -10.531951 -16.3073139 -0.705716014 # OH_alcohol5
378 63 1 0.404 -9.64333439 -16.060955 -1.014781 # cH_alcohol6
379 64 1 0.404 0.732277989 -14.3636923 9.71789265 # cH_alcohol1
380 64 2 -0.65 0.944824994 -15.1292696 10.2784481 # OH_alcohol2
381 64 3 0.246 0.630981028 -16.3026428 9.5381813 # CH2_alcohol3
382 64 3 0.246 -0.850022972 -16.3000774 9.21125031 # CH2_alcohol4
383 64 2 -0.65 -1.59303796 -16.3004551 10.4241543 # OH_alcohol5
384 64 1 0.404 -1.33186495 -15.5097857 10.9266319 # cH_alcohol6
385 65 1 0.404 12.0928612 -3.27930498 8.64954472 # cH_alcohol1
386 65 2 -0.65 11.2504749 -3.47932601 9.09213448 # OH_alcohol2
387 65 3 0.246 11.2415829 -4.87065697 9.38779163 # CH2_alcohol3
388 65 3 0.246 11.3399429 -5.65251398 8.09191799 # CH2_alcohol4
389 65 2 -0.65 10.2172918 -5.34135103 7.275805 # OH_alcohol5
390 65 1 0.404 10.2262497 -4.38125801 7.12090683 # cH_alcohol6
391 66 1 0.404 -7.64260101 11.1341553 13.5534153 # cH_alcohol1
392 66 2 -0.65 -7.39170885 11.8804379 12.9827814 # OH_alcohol2
393 66 3 0.246 -8.31406116 12.9354258 13.2268391 # CH2_alcohol3
394 66 3 0.246 -9.71096134 12.4634476 12.8716354 # CH2_alcohol4
395 66 2 -0.65 -9.7481041 12.1205921 11.4916801 # OH_alcohol5
396 66 1 0.404 -9.08321953 11.4260216 11.3455429 # cH_alcohol6
397 67 1 0.404 -4.93726921 1.830863 -4.259027 # cH_alcohol1
398 67 2 -0.65 -5.54038715 2.59317303 -4.28433514 # OH_alcohol2
399 67 3 0.246 -4.90158987 3.62027097 -5.03286886 # CH2_alcohol3
400 67 3 0.246 -3.61057401 4.00883579 -4.33820581 # CH2_alcohol4
401 67 2 -0.65 -3.91265607 4.49813318 -3.03722906 # OH_alcohol5
402 67 1 0.404 -4.38136816 3.79135704 -2.56117296 # cH_alcohol6
403 68 1 0.404 -11.6563921 -7.54406023 -3.00320005 # cH_alcohol1
404 68 2 -0.65 -11.3448496 -8.23393822 -2.39285707 # OH_alcohol2
405 68 3 0.246 -12.4336138 -8.57971954 -1.54531801 # CH2_alcohol3
406 68 3 0.246 -12.8590803 -7.3532548 -0.761083007 # CH2_alcohol4
407 68 2 -0.65 -11.7679367 -6.91128206 0.0372110009 # OH_alcohol5
408 68 1 0.404 -11.0269117 -6.71846294 -0.562417984 # cH_alcohol6
409 69 1 0.404 -3.378829 -9.35585308 -9.42138195 # cH_alcohol1
410 69 2 -0.65 -2.621418 -8.83533573 -9.73902512 # OH_alcohol2
411 69 3 0.246 -2.40648603 -9.17959499 -11.1023254 # CH2_alcohol3
412 69 3 0.246 -2.08825397 -10.6596165 -11.1946764 # CH2_alcohol4
413 69 2 -0.65 -0.904138982 -10.9268532 -10.4532833 # OH_alcohol5
414 69 1 0.404 -1.06513202 -10.6477566 -9.53565598 # cH_alcohol6
415 70 1 0.404 15.7315207 -3.53554702 14.4949522 # cH_alcohol1
416 70 2 -0.65 15.4178247 -3.33484507 15.3931828 # OH_alcohol2
417 70 3 0.246 16.3038597 -3.96834207 16.3080158 # CH2_alcohol3
418 70 3 0.246 16.2688675 -5.46641207 16.0738678 # CH2_alcohol4
419 70 2 -0.65 14.9470072 -5.94067287 16.2996273 # OH_alcohol5
420 70 1 0.404 14.3580437 -5.46499395 15.6891317 # cH_alcohol6
421 71 1 0.404 -13.8209438 9.1030283 3.92637706 # cH_alcohol1
422 71 2 -0.65 -13.556591 9.79635811 3.29795098 # OH_alcohol2
423 71 3 0.246 -12.3322325 10.3516293 3.76261592 # CH2_alcohol3
424 71 3 0.246 -12.5534239 10.9585552 5.13483286 # CH2_alcohol4
425 71 2 -0.65 -13.5261612 11.9914398 5.03413677 # OH_alcohol5
426 71 1 0.404 -14.3392439 11.592989 4.67919207 # cH_alcohol6
427 72 1 0.404 -8.2060957 -3.67519403 -9.16960335 # cH_alcohol1
428 72 2 -0.65 -8.50775528 -4.34882784 -9.80263233 # OH_alcohol2
429 72 3 0.246 -8.86676025 -3.67745709 -11.0041609 # CH2_alcohol3
430 72 3 0.246 -9.99412918 -2.70635295 -10.7104597 # CH2_alcohol4
431 72 2 -0.65 -11.1179457 -3.43227005 -10.2274637 # OH_alcohol5
432 72 1 0.404 -10.8352156 -3.91079903 -9.42938614 # cH_alcohol6
433 73 1 0.404 4.08814001 14.2223816 -11.6151009 # cH_alcohol1
434 73 2 -0.65 3.52876401 13.9700136 -10.860836 # OH_alcohol2
435 73 3 0.246 2.51359105 14.9578457 -10.7308092 # CH2_alcohol3
436 73 3 0.246 3.16269112 16.302084 -10.4625673 # CH2_alcohol4
437 73 2 -0.65 3.89988708 16.2274456 -9.24840927 # OH_alcohol5
438 73 1 0.404 4.56005287 15.5206575 -9.35080242 # cH_alcohol6
439 74 1 0.404 2.74296999 16.3050003 -16.3041229 # cH_alcohol1
440 74 2 -0.65 3.00276804 15.9712563 -15.4285507 # OH_alcohol2
441 74 3 0.246 4.36828613 16.3147774 -15.2269316 # CH2_alcohol3
442 74 3 0.246 5.20919514 15.6510324 -16.3005123 # CH2_alcohol4
443 74 2 -0.65 5.06268787 14.2398882 -16.198452 # OH_alcohol5
444 74 1 0.404 4.11728907 14.0364094 -16.3017426 # cH_alcohol6
445 75 1 0.404 -15.8975916 -15.8869219 -10.5395412 # cH_alcohol1
446 75 2 -0.65 -16.3028946 -15.6435909 -11.3892632 # OH_alcohol2
447 75 3 0.246 -15.5848036 -16.3181057 -12.4152622 # CH2_alcohol3
448 75 3 0.246 -14.1379299 -15.864213 -12.3869791 # CH2_alcohol4
449 75 2 -0.65 -14.0864353 -14.4627962 -12.6248531 # OH_alcohol5
450 75 1 0.404 -14.615283 -14.0297308 -11.9330244 # cH_alcohol6